 DBCSR| CPU Multiplication driver                                           XSMM (U)
 DBCSR| Multrec recursion limit                                              512 (U)
 DBCSR| Multiplication stack size                                           1000 (D)
 DBCSR| Maximum elements for images                                    UNLIMITED (U)
 DBCSR| Multiplicative factor virtual images                                   1 (U)
 DBCSR| Use multiplication densification                                       T (D)
 DBCSR| Multiplication size stacks                                             3 (U)
 DBCSR| Use memory pool for CPU allocation                                     F (U)
 DBCSR| Number of 3D layers                                               SINGLE (U)
 DBCSR| Use MPI memory allocation                                              F (U)
 DBCSR| Use RMA algorithm                                                      F (U)
 DBCSR| Use Communication thread                                               T (U)
 DBCSR| Communication thread load                                             87 (D)
 DBCSR| MPI: My process id                                                     0
 DBCSR| MPI: Number of processes                                              36
 DBCSR| OMP: Current number of threads                                         1
 DBCSR| OMP: Max number of threads                                             1
 DBCSR| Split modifier for TAS multiplication algorithm                  1.0E+00 (U)


  **** **** ******  **  PROGRAM STARTED AT               2026-05-02 15:45:56.422
 ***** ** ***  *** **   PROGRAM STARTED ON                         phy-cerberus4
 **    ****   ******    PROGRAM STARTED BY                                 crm98
 ***** **    ** ** **   PROGRAM PROCESS ID                               1225525
  **** **  *******  **  PROGRAM STARTED IN /lsc/zeushome/crm98/cp2k-benchmarks/r
                                           esults/cp2k_optimized/NNP/NNP_size_sc
                                           aling_feature-nnp-verlet-cells_02-05_
                                           15-45/N_512

 CP2K| version string:                 CP2K version 2026.1 (Development Version)
 CP2K| source code revision number:                                   151b7d1223
 CP2K| cp2kflags: omp libint fftw3 libxc parallel scalapack mpi_f08 cosma ace de
 CP2K|            epmd xsmm plumed2 spglib libdftd4 dftd4_v3 mctc-lib tblite lib
 CP2K|            bvori libbqb libtorch mimic hdf5 trexio libsmeagol greenx
 CP2K| is freely available from                            https://www.cp2k.org/
 CP2K| Program compiled at                                   2026-05-02 15:35:30
 CP2K| Program compiled on                                         phy-cerberus4
 CP2K| Program compiled for                                               x86_64
 CP2K| Data directory path           /local/data/public/crm98/original_cp2k/data
 CP2K| Input file name                                                   run.inp

 GLOBAL| Force Environment number                                              1
 GLOBAL| Basis set file name                                           BASIS_SET
 GLOBAL| Potential file name                                           POTENTIAL
 GLOBAL| MM Potential file name                                     MM_POTENTIAL
 GLOBAL| Coordinate file name                                      __STD_INPUT__
 GLOBAL| Method name                                                        CP2K
 GLOBAL| Project name                                              H2O-64_NNP_MD
 GLOBAL| Run type                                                             MD
 GLOBAL| FFT library                                                       FFTW3
 GLOBAL| Diagonalization library                                       ScaLAPACK
 GLOBAL| Cholesky decomposition library                                ScaLAPACK
 GLOBAL| DGEMM library                                                      BLAS
 GLOBAL| Orthonormality check for eigenvectors                          DISABLED
 GLOBAL| Matrix multiplication library                                     COSMA
 GLOBAL| All-to-all communication in single precision                          F
 GLOBAL| FFTs using library dependent lengths                                  F
 GLOBAL| Grid backend                                                       AUTO
 GLOBAL| Global print level                                                  LOW
 GLOBAL| MPI I/O enabled                                                       T
 GLOBAL| Total number of message passing processes                            36
 GLOBAL| Number of distributed systems (nodes)                                 1
 GLOBAL| Number of threads for this process                                    1
 GLOBAL| This output is from process                                           0
 GLOBAL| OpenMP stack size per thread (OMP_STACKSIZE)                    default
 GLOBAL| CPU model name                              Intel(R) Xeon(R) Gold 5418Y
 GLOBAL| CPUID                                                              1003

 MEMORY| system memory details [Kb]
 MEMORY|                        rank 0           min           max       average
 MEMORY| MemTotal            263594404     263594404     263594404     263594404
 MEMORY| MemFree              47033716      47033716      47033716      47033716
 MEMORY| Buffers               2797532       2797532       2797532       2797532
 MEMORY| Cached              196217400     196217400     196217400     196217400
 MEMORY| Slab                  9214036       9214036       9214036       9214036
 MEMORY| SReclaimable          7586308       7586308       7586308       7586308
 MEMORY| MemLikelyFree       253634956     253634956     253634956     253634956


 GENERATE|  Preliminary Number of Bonds generated:                             0
 GENERATE|  Achieved consistency in connectivity generation.
 
 NNP| Neural Network Potential Force Environment
 NNP| Reading NNP input from file: NNP/bulkH2O-jcp2020-cnnp/nnp-1/input.nn
 NNP| Activation functions:  1  1  3
 NNP| short range atomic symmetry functions element H :
 NNP|   1 H   2 H             0.001  0.000 12.000
 NNP|   2 H   2 O             0.001  0.000 12.000
 NNP|   3 H   2 H             0.010  0.000 12.000
 NNP|   4 H   2 O             0.010  0.000 12.000
 NNP|   5 H   2 H             0.030  0.000 12.000
 NNP|   6 H   2 O             0.030  0.000 12.000
 NNP|   7 H   2 H             0.060  0.000 12.000
 NNP|   8 H   2 O             0.060  0.000 12.000
 NNP|   9 H   2 O             0.150  0.900 12.000
 NNP|  10 H   2 H             0.150  1.900 12.000
 NNP|  11 H   2 O             0.300  0.900 12.000
 NNP|  12 H   2 H             0.300  1.900 12.000
 NNP|  13 H   2 O             0.600  0.900 12.000
 NNP|  14 H   2 H             0.600  1.900 12.000
 NNP|  15 H   2 O             1.500  0.900 12.000
 NNP|  16 H   2 H             1.500  1.900 12.000
 NNP|   1 H   3 O  O   0.001 -1.000  4.000 12.000
 NNP|   2 H   3 O  O   0.001  1.000  4.000 12.000
 NNP|   3 H   3 H  O   0.010 -1.000  4.000 12.000
 NNP|   4 H   3 H  O   0.010  1.000  4.000 12.000
 NNP|   5 H   3 H  O   0.030 -1.000  1.000 12.000
 NNP|   6 H   3 O  O   0.030 -1.000  1.000 12.000
 NNP|   7 H   3 H  O   0.030  1.000  1.000 12.000
 NNP|   8 H   3 O  O   0.030  1.000  1.000 12.000
 NNP|   9 H   3 H  O   0.070 -1.000  1.000 12.000
 NNP|  10 H   3 H  O   0.070  1.000  1.000 12.000
 NNP|  11 H   3 H  O   0.200  1.000  1.000 12.000
 NNP| short range atomic symmetry functions element O :
 NNP|   1 O   2 H             0.001  0.000 12.000
 NNP|   2 O   2 O             0.001  0.000 12.000
 NNP|   3 O   2 H             0.010  0.000 12.000
 NNP|   4 O   2 O             0.010  0.000 12.000
 NNP|   5 O   2 H             0.030  0.000 12.000
 NNP|   6 O   2 O             0.030  0.000 12.000
 NNP|   7 O   2 H             0.060  0.000 12.000
 NNP|   8 O   2 O             0.060  0.000 12.000
 NNP|   9 O   2 H             0.150  0.900 12.000
 NNP|  10 O   2 O             0.150  4.000 12.000
 NNP|  11 O   2 H             0.300  0.900 12.000
 NNP|  12 O   2 O             0.300  4.000 12.000
 NNP|  13 O   2 H             0.600  0.900 12.000
 NNP|  14 O   2 O             0.600  4.000 12.000
 NNP|  15 O   2 H             1.500  0.900 12.000
 NNP|  16 O   2 O             1.500  4.000 12.000
 NNP|   1 O   3 H  O   0.001 -1.000  4.000 12.000
 NNP|   2 O   3 O  O   0.001 -1.000  4.000 12.000
 NNP|   3 O   3 H  O   0.001  1.000  4.000 12.000
 NNP|   4 O   3 O  O   0.001  1.000  4.000 12.000
 NNP|   5 O   3 H  H   0.010 -1.000  4.000 12.000
 NNP|   6 O   3 H  H   0.010  1.000  4.000 12.000
 NNP|   7 O   3 H  H   0.030 -1.000  1.000 12.000
 NNP|   8 O   3 H  O   0.030 -1.000  1.000 12.000
 NNP|   9 O   3 O  O   0.030 -1.000  1.000 12.000
 NNP|  10 O   3 H  H   0.030  1.000  1.000 12.000
 NNP|  11 O   3 H  O   0.030  1.000  1.000 12.000
 NNP|  12 O   3 O  O   0.030  1.000  1.000 12.000
 NNP|  13 O   3 H  H   0.070 -1.000  1.000 12.000
 NNP|  14 O   3 H  H   0.070  1.000  1.000 12.000
 NNP| Neural network specification for element H :
 NNP|  27 nodes in layer  1
 NNP|  20 nodes in layer  2
 NNP|  20 nodes in layer  3
 NNP|   1 nodes in layer  4
 NNP| Neural network specification for element O :
 NNP|  30 nodes in layer  1
 NNP|  20 nodes in layer  2
 NNP|  20 nodes in layer  3
 NNP|   1 nodes in layer  4
 NNP| Reading scaling information from file: NNP/bulkH2O-jcp2020-cnnp/nnp-1/input.nn
 NNP| Initializing weights for model:            1
 NNP| Reading weights from file: NNP/bulkH2O-jcp2020-cnnp/nnp-1/weights.001.data
 NNP| Reading weights from file: NNP/bulkH2O-jcp2020-cnnp/nnp-1/weights.008.data
 NNP| NNP force environment initialized

 MD_PAR| Molecular dynamics protocol (MD input parameters)
 MD_PAR| Ensemble type                                                       NVT
 MD_PAR| Number of time steps                                                100
 MD_PAR| Time step [fs]                                                 0.500000
 MD_PAR| Temperature [K]                                              300.000000
 MD_PAR| Temperature tolerance [K]                                      0.000000
 MD_PAR| Print MD information every                                    1 step(s)
 MD_PAR| File type   Print frequency [steps]                          File names
 MD_PAR| Coordinates          1                          H2O-64_NNP_MD-pos-1.xyz
 MD_PAR| Velocities           1                          H2O-64_NNP_MD-vel-1.xyz
 MD_PAR| Energies             1                             H2O-64_NNP_MD-1.ener
 MD_PAR| Dump                20                          H2O-64_NNP_MD-1.restart

 ROT| Rotational analysis information
 ROT| Principal axes and moments of inertia [a.u.]
 ROT|                           1                   2                   3
 ROT| Eigenvalues      1.29552752864E+10   1.47153267994E+10   1.57068284128E+10
 ROT|      x              0.926985305794      0.086790597640      0.364918669024
 ROT|      y             -0.318278247060      0.696798663376      0.642783462891
 ROT|      z             -0.198487279920     -0.711996499204      0.673545681325
 ROT| Number of rotovibrational vectors                                        6

 DOF| Calculation of degrees of freedom
 DOF| Number of atoms                                                       1536
 DOF| Number of intramolecular constraints                                     0
 DOF| Number of intermolecular constraints                                     0
 DOF| Invariants (translations + rotations)                                    3
 DOF| Degrees of freedom                                                    4605

 DOF| Restraints information
 DOF| Number of intramolecular restraints                                      0
 DOF| Number of intermolecular restraints                                      0

 THERMOSTAT| Thermostat information for PARTICLES
 THERMOSTAT| Type of thermostat            Canonical Sampling/Velocity Rescaling
 THERMOSTAT| CSVR time constant [fs]                                   30.000000
 THERMOSTAT| Initial kinetic energy                           0.000000000000E+00
 THERMOSTAT| End of thermostat information for PARTICLES

 MD_VEL| Velocities initialization
 MD_VEL| Initial temperature [K]                                      300.000000
 MD_VEL| COM velocity             0.0000000000    -0.0000000000     0.0000000000

 ENERGY| Total FORCE_EVAL ( NNP ) energy [hartree]         30016.517818374715716

 MD_INI| MD initialization
 MD_INI| Potential energy [hartree]                           0.300165178184E+05
 MD_INI| Kinetic energy [hartree]                             0.218747769838E+01
 MD_INI| Temperature [K]                                              300.000000
 MD_INI| Cell volume [bohr^3]                                 1.034311566471E+05
 MD_INI| Cell volume [ang^3]                                  1.532691590400E+04
 MD_INI| Cell lengths [bohr]      4.69407971E+01  4.69407971E+01  4.69407971E+01
 MD_INI| Cell lengths [ang]       2.48400000E+01  2.48400000E+01  2.48400000E+01
 MD_INI| Cell angles [deg]        9.00000000E+01  9.00000000E+01  9.00000000E+01

 ENERGY| Total FORCE_EVAL ( NNP ) energy [hartree]         30015.694752095230797

 MD| ***************************************************************************
 MD| Step number                                                               1
 MD| Time [fs]                                                          0.500000
 MD| Conserved quantity [hartree]                             0.300181415059E+05
 MD| ---------------------------------------------------------------------------
 MD|                                          Instantaneous             Averages
 MD| CPU time per MD step [s]                      0.115054             0.115054
 MD| Energy drift per atom [K]          -0.115905370740E+03   0.000000000000E+00
 MD| Potential energy [hartree]          0.300156947521E+05   0.300156947521E+05
 MD| Kinetic energy [hartree]            0.244504376343E+01   0.244504376343E+01
 MD| Temperature [K]                             335.323706           335.323706
 MD| ***************************************************************************
 MD| Estimated peak process memory after this step [MiB]                     270

 ENERGY| Total FORCE_EVAL ( NNP ) energy [hartree]         30015.055727376977302

 MD| ***************************************************************************
 MD| Step number                                                               2
 MD| Time [fs]                                                          1.000000
 MD| Conserved quantity [hartree]                             0.300181134890E+05
 MD| ---------------------------------------------------------------------------
 MD|                                          Instantaneous             Averages
 MD| CPU time per MD step [s]                      0.047003             0.081029
 MD| Energy drift per atom [K]          -0.121665160086E+03  -0.608325800430E+02
 MD| Potential energy [hartree]          0.300150557274E+05   0.300153752397E+05
 MD| Kinetic energy [hartree]            0.304680678855E+01   0.274592527599E+01
 MD| Temperature [K]                             417.852048           376.587877
 MD| ***************************************************************************
 MD| Estimated peak process memory after this step [MiB]                     270

 ENERGY| Total FORCE_EVAL ( NNP ) energy [hartree]         30014.619440388338262

 MD| ***************************************************************************
 MD| Step number                                                               3
 MD| Time [fs]                                                          1.500000
 MD| Conserved quantity [hartree]                             0.300181961151E+05
 MD| ---------------------------------------------------------------------------
 MD|                                          Instantaneous             Averages
 MD| CPU time per MD step [s]                      0.065219             0.075759
 MD| Energy drift per atom [K]          -0.104678682671E+03  -0.754479475857E+02
 MD| Potential energy [hartree]          0.300146194404E+05   0.300151233066E+05
 MD| Kinetic energy [hartree]            0.355177593675E+01   0.301454216291E+01
 MD| Temperature [K]                             487.105666           413.427140
 MD| ***************************************************************************
 MD| Estimated peak process memory after this step [MiB]                     270

 ENERGY| Total FORCE_EVAL ( NNP ) energy [hartree]         30014.722828462847247

 MD| ***************************************************************************
 MD| Step number                                                               4
 MD| Time [fs]                                                          2.000000
 MD| Conserved quantity [hartree]                             0.300183033705E+05
 MD| ---------------------------------------------------------------------------
 MD|                                          Instantaneous             Averages
 MD| CPU time per MD step [s]                      0.061950             0.072307
 MD| Energy drift per atom [K]          -0.826288420330E+02  -0.772431711976E+02
 MD| Potential energy [hartree]          0.300147228285E+05   0.300150231871E+05
 MD| Kinetic energy [hartree]            0.353316008320E+01   0.314419664298E+01
 MD| Temperature [K]                             484.552609           431.208507
 MD| ***************************************************************************
 MD| Estimated peak process memory after this step [MiB]                     270

 ENERGY| Total FORCE_EVAL ( NNP ) energy [hartree]         30016.019658482040541

 MD| ***************************************************************************
 MD| Step number                                                               5
 MD| Time [fs]                                                          2.500000
 MD| Conserved quantity [hartree]                             0.300197143824E+05
 MD| ---------------------------------------------------------------------------
 MD|                                          Instantaneous             Averages
 MD| CPU time per MD step [s]                      0.076421             0.073129
 MD| Energy drift per atom [K]           0.207450451563E+03  -0.203044466455E+02
 MD| Potential energy [hartree]          0.300160196585E+05   0.300152224814E+05
 MD| Kinetic energy [hartree]            0.362591395545E+01   0.324054010548E+01
 MD| Temperature [K]                             497.273269           444.421460
 MD| ***************************************************************************
 MD| Estimated peak process memory after this step [MiB]                     270

 ENERGY| Total FORCE_EVAL ( NNP ) energy [hartree]         30014.630669085330737

 MD| ***************************************************************************
 MD| Step number                                                               6
 MD| Time [fs]                                                          3.000000
 MD| Conserved quantity [hartree]                             0.300192265294E+05
 MD| ---------------------------------------------------------------------------
 MD|                                          Instantaneous             Averages
 MD| CPU time per MD step [s]                      0.070369             0.072669
 MD| Energy drift per atom [K]           0.107156424658E+03   0.939031904986E+00
 MD| Potential energy [hartree]          0.300146306691E+05   0.300151238460E+05
 MD| Kinetic energy [hartree]            0.449207502443E+01   0.344912925864E+01
 MD| Temperature [K]                             616.062284           473.028264
 MD| ***************************************************************************
 MD| Estimated peak process memory after this step [MiB]                     270

 ENERGY| Total FORCE_EVAL ( NNP ) energy [hartree]         30013.211529662974499

 MD| ***************************************************************************
 MD| Step number                                                               7
 MD| Time [fs]                                                          3.500000
 MD| Conserved quantity [hartree]                             0.300187828434E+05
 MD| ---------------------------------------------------------------------------
 MD|                                          Instantaneous             Averages
 MD| CPU time per MD step [s]                      0.060590             0.070944
 MD| Energy drift per atom [K]           0.159423632744E+02   0.308236495776E+01
 MD| Potential energy [hartree]          0.300132115297E+05   0.300148506579E+05
 MD| Kinetic energy [hartree]            0.539785579996E+01   0.372751876454E+01
 MD| Temperature [K]                             740.284914           511.207785
 MD| ***************************************************************************
 MD| Estimated peak process memory after this step [MiB]                     270

 ENERGY| Total FORCE_EVAL ( NNP ) energy [hartree]         30012.745019134043105

 MD| ***************************************************************************
 MD| Step number                                                               8
 MD| Time [fs]                                                          4.000000
 MD| Conserved quantity [hartree]                             0.300188477181E+05
 MD| ---------------------------------------------------------------------------
 MD|                                          Instantaneous             Averages
 MD| CPU time per MD step [s]                      0.067532             0.070517
 MD| Energy drift per atom [K]           0.292794605058E+02   0.635700190127E+01
 MD| Potential energy [hartree]          0.300127450191E+05   0.300145874531E+05
 MD| Kinetic energy [hartree]            0.585798383828E+01   0.399382689876E+01
 MD| Temperature [K]                             803.388831           547.730416
 MD| ***************************************************************************
 MD| Estimated peak process memory after this step [MiB]                     270

 ENERGY| Total FORCE_EVAL ( NNP ) energy [hartree]         30012.391633498053125

 MD| ***************************************************************************
 MD| Step number                                                               9
 MD| Time [fs]                                                          4.500000
 MD| Conserved quantity [hartree]                             0.300188716139E+05
 MD| ---------------------------------------------------------------------------
 MD|                                          Instantaneous             Averages
 MD| CPU time per MD step [s]                      0.098335             0.073608
 MD| Energy drift per atom [K]           0.341920289401E+02   0.944978268336E+01
 MD| Potential energy [hartree]          0.300123916335E+05   0.300143434731E+05
 MD| Kinetic energy [hartree]            0.615732424930E+01   0.423421549326E+01
 MD| Temperature [K]                             844.441649           580.698331
 MD| ***************************************************************************
 MD| Estimated peak process memory after this step [MiB]                     270

 ENERGY| Total FORCE_EVAL ( NNP ) energy [hartree]         30011.574115312825597

 MD| ***************************************************************************
 MD| Step number                                                              10
 MD| Time [fs]                                                          5.000000
 MD| Conserved quantity [hartree]                             0.300184894360E+05
 MD| ---------------------------------------------------------------------------
 MD|                                          Instantaneous             Averages
 MD| CPU time per MD step [s]                      0.114706             0.077718
 MD| Energy drift per atom [K]          -0.443770361799E+02   0.406710079703E+01
 MD| Potential energy [hartree]          0.300115741153E+05   0.300140665373E+05
 MD| Kinetic energy [hartree]            0.651694748313E+01   0.446248869225E+01
 MD| Temperature [K]                             893.761910           612.004689
 MD| ***************************************************************************
 MD| Estimated peak process memory after this step [MiB]                     270

 ENERGY| Total FORCE_EVAL ( NNP ) energy [hartree]         30012.434387402474385

 MD| ***************************************************************************
 MD| Step number                                                              11
 MD| Time [fs]                                                          5.500000
 MD| Conserved quantity [hartree]                             0.300198519132E+05
 MD| ---------------------------------------------------------------------------
 MD|                                          Instantaneous             Averages
 MD| CPU time per MD step [s]                      0.066017             0.076654
 MD| Energy drift per atom [K]           0.235724356554E+03   0.251268513204E+02
 MD| Potential energy [hartree]          0.300124343874E+05   0.300139181601E+05
 MD| Kinetic energy [hartree]            0.695042749578E+01   0.468866494712E+01
 MD| Temperature [K]                             953.211203           643.023463
 MD| ***************************************************************************
 MD| Estimated peak process memory after this step [MiB]                     270

 ENERGY| Total FORCE_EVAL ( NNP ) energy [hartree]         30015.019900312516256

 MD| ***************************************************************************
 MD| Step number                                                              12
 MD| Time [fs]                                                          6.000000
 MD| Conserved quantity [hartree]                             0.300230230273E+05
 MD| ---------------------------------------------------------------------------
 MD|                                          Instantaneous             Averages
 MD| CPU time per MD step [s]                      0.074037             0.076436
 MD| Energy drift per atom [K]           0.887649776831E+03   0.970037617796E+02
 MD| Potential energy [hartree]          0.300150199003E+05   0.300140099718E+05
 MD| Kinetic energy [hartree]            0.745948196149E+01   0.491956636498E+01
 MD| Temperature [K]                            1023.025099           674.690266
 MD| ***************************************************************************
 MD| Estimated peak process memory after this step [MiB]                     270

 ENERGY| Total FORCE_EVAL ( NNP ) energy [hartree]         30008.123593625012290

 MD| ***************************************************************************
 MD| Step number                                                              13
 MD| Time [fs]                                                          6.500000
 MD| Conserved quantity [hartree]                             0.300214791424E+05
 MD| ---------------------------------------------------------------------------
 MD|                                          Instantaneous             Averages
 MD| CPU time per MD step [s]                      0.070986             0.076017
 MD| Energy drift per atom [K]           0.570254129860E+03   0.133407636247E+03
 MD| Potential energy [hartree]          0.300081235936E+05   0.300135571734E+05
 MD| Kinetic energy [hartree]            0.126913043073E+02   0.551739236054E+01
 MD| Temperature [K]                            1740.539478           756.678667
 MD| ***************************************************************************
 MD| Estimated peak process memory after this step [MiB]                     270

 ENERGY| Total FORCE_EVAL ( NNP ) energy [hartree]         30011.641186563228985

 MD| ***************************************************************************
 MD| Step number                                                              14
 MD| Time [fs]                                                          7.000000
 MD| Conserved quantity [hartree]                             0.300273259508E+05
 MD| ---------------------------------------------------------------------------
 MD|                                          Instantaneous             Averages
 MD| CPU time per MD step [s]                      0.081332             0.076397
 MD| Energy drift per atom [K]           0.177225533916E+04   0.250468186455E+03
 MD| Potential energy [hartree]          0.300116411866E+05   0.300134203172E+05
 MD| Kinetic energy [hartree]            0.148228814512E+02   0.618207015273E+01
 MD| Temperature [K]                            2032.873039           847.835408
 MD| ***************************************************************************
 MD| Estimated peak process memory after this step [MiB]                     270

 ENERGY| Total FORCE_EVAL ( NNP ) energy [hartree]         30010.290283279064170

 MD| ***************************************************************************
 MD| Step number                                                              15
 MD| Time [fs]                                                          7.500000
 MD| Conserved quantity [hartree]                             0.300251465033E+05
 MD| ---------------------------------------------------------------------------
 MD|                                          Instantaneous             Averages
 MD| CPU time per MD step [s]                      0.054396             0.074930
 MD| Energy drift per atom [K]           0.132419918285E+04   0.322050252881E+03
 MD| Potential energy [hartree]          0.300102902833E+05   0.300132116483E+05
 MD| Kinetic energy [hartree]            0.137842673837E+02   0.668888330147E+01
 MD| Temperature [K]                            1890.433086           917.341919
 MD| ***************************************************************************
 MD| Estimated peak process memory after this step [MiB]                     270

 ENERGY| Total FORCE_EVAL ( NNP ) energy [hartree]         30014.461551316344412

 MD| ***************************************************************************
 MD| Step number                                                              16
 MD| Time [fs]                                                          8.000000
 MD| Conserved quantity [hartree]                             0.300326632971E+05
 MD| ---------------------------------------------------------------------------
 MD|                                          Instantaneous             Averages
 MD| CPU time per MD step [s]                      0.056767             0.073795
 MD| Energy drift per atom [K]           0.286952009677E+04   0.481267118124E+03
 MD| Potential energy [hartree]          0.300144615513E+05   0.300132897672E+05
 MD| Kinetic energy [hartree]            0.169571454441E+02   0.733064968538E+01
 MD| Temperature [K]                            2325.575084          1005.356492
 MD| ***************************************************************************
 MD| Estimated peak process memory after this step [MiB]                     270

 ENERGY| Total FORCE_EVAL ( NNP ) energy [hartree]         30014.194843256282184

 MD| ***************************************************************************
 MD| Step number                                                              17
 MD| Time [fs]                                                          8.500000
 MD| Conserved quantity [hartree]                             0.300325553889E+05
 MD| ---------------------------------------------------------------------------
 MD|                                          Instantaneous             Averages
 MD| CPU time per MD step [s]                      0.069232             0.073526
 MD| Energy drift per atom [K]           0.284733605943E+04   0.620447644083E+03
 MD| Potential energy [hartree]          0.300141948433E+05   0.300133430070E+05
 MD| Kinetic energy [hartree]            0.168610854322E+02   0.789126355284E+01
 MD| Temperature [K]                            2312.401006          1082.241464
 MD| ***************************************************************************
 MD| Estimated peak process memory after this step [MiB]                     270

 ENERGY| Total FORCE_EVAL ( NNP ) energy [hartree]         30015.162116093229997

 MD| ***************************************************************************
 MD| Step number                                                              18
 MD| Time [fs]                                                          9.000000
 MD| Conserved quantity [hartree]                             0.300346180309E+05
 MD| ---------------------------------------------------------------------------
 MD|                                          Instantaneous             Averages
 MD| CPU time per MD step [s]                      0.097734             0.074871
 MD| Energy drift per atom [K]           0.327137905543E+04   0.767721611380E+03
 MD| Potential energy [hartree]          0.300151621161E+05   0.300134440686E+05
 MD| Kinetic energy [hartree]            0.176955916804E+02   0.843594844881E+01
 MD| Temperature [K]                            2426.848744          1156.941868
 MD| ***************************************************************************
 MD| Estimated peak process memory after this step [MiB]                     270

 ENERGY| Total FORCE_EVAL ( NNP ) energy [hartree]         30014.550201708603709

 MD| ***************************************************************************
 MD| Step number                                                              19
 MD| Time [fs]                                                          9.500000
 MD| Conserved quantity [hartree]                             0.300348284228E+05
 MD| ---------------------------------------------------------------------------
 MD|                                          Instantaneous             Averages
 MD| CPU time per MD step [s]                      0.063303             0.074262
 MD| Energy drift per atom [K]           0.331463194402E+04   0.901769523625E+03
 MD| Potential energy [hartree]          0.300145502017E+05   0.300135022862E+05
 MD| Kinetic energy [hartree]            0.182079306318E+02   0.895026330055E+01
 MD| Temperature [K]                            2497.113088          1227.477195
 MD| ***************************************************************************
 MD| Estimated peak process memory after this step [MiB]                     270

 ENERGY| Total FORCE_EVAL ( NNP ) energy [hartree]         30017.610230692927871

 MD| ***************************************************************************
 MD| Step number                                                              20
 MD| Time [fs]                                                         10.000000
 MD| Conserved quantity [hartree]                             0.300384026823E+05
 MD| ---------------------------------------------------------------------------
 MD|                                          Instantaneous             Averages
 MD| CPU time per MD step [s]                      0.050744             0.073086
 MD| Energy drift per atom [K]           0.404943698721E+04   0.105915289680E+04
 MD| Potential energy [hartree]          0.300176102307E+05   0.300137076834E+05
 MD| Kinetic energy [hartree]            0.184282619747E+02   0.942416323426E+01
 MD| Temperature [K]                            2527.330266          1292.469849
 MD| ***************************************************************************
 MD| Estimated peak process memory after this step [MiB]                     270

 ENERGY| Total FORCE_EVAL ( NNP ) energy [hartree]         30010.908791797672166

 MD| ***************************************************************************
 MD| Step number                                                              21
 MD| Time [fs]                                                         10.500000
 MD| Conserved quantity [hartree]                             0.300354024488E+05
 MD| ---------------------------------------------------------------------------
 MD|                                          Instantaneous             Averages
 MD| CPU time per MD step [s]                      0.087085             0.073753
 MD| Energy drift per atom [K]           0.343264161551E+04   0.117217616912E+04
 MD| Potential energy [hartree]          0.300109087918E+05   0.300135744028E+05
 MD| Kinetic energy [hartree]            0.217982193043E+02   0.100134039995E+02
 MD| Temperature [K]                            2989.500554          1373.280835
 MD| ***************************************************************************
 MD| Estimated peak process memory after this step [MiB]                     270

 ENERGY| Total FORCE_EVAL ( NNP ) energy [hartree]         30013.958360474112851

 MD| ***************************************************************************
 MD| Step number                                                              22
 MD| Time [fs]                                                         11.000000
 MD| Conserved quantity [hartree]                             0.300492527843E+05
 MD| ---------------------------------------------------------------------------
 MD|                                          Instantaneous             Averages
 MD| CPU time per MD step [s]                      0.125870             0.076122
 MD| Energy drift per atom [K]           0.628002757396E+04   0.140435123298E+04
 MD| Potential energy [hartree]          0.300139583605E+05   0.300135918555E+05
 MD| Kinetic energy [hartree]            0.321874515627E+02   0.110213152524E+02
 MD| Temperature [K]                            4414.324076          1511.510073
 MD| ***************************************************************************
 MD| Estimated peak process memory after this step [MiB]                     270

 ENERGY| Total FORCE_EVAL ( NNP ) energy [hartree]         30006.556962675163959

 MD| ***************************************************************************
 MD| Step number                                                              23
 MD| Time [fs]                                                         11.500000
 MD| Conserved quantity [hartree]                             0.300639988101E+05
 MD| ---------------------------------------------------------------------------
 MD|                                          Instantaneous             Averages
 MD| CPU time per MD step [s]                      0.070998             0.075899
 MD| Energy drift per atom [K]           0.931155172134E+04   0.174814255856E+04
 MD| Potential energy [hartree]          0.300065569627E+05   0.300132859906E+05
 MD| Kinetic energy [hartree]            0.536556346984E+02   0.128749813152E+02
 MD| Temperature [K]                            7358.562065          1765.729725
 MD| ***************************************************************************
 MD| Estimated peak process memory after this step [MiB]                     270

 ENERGY| Total FORCE_EVAL ( NNP ) energy [hartree]         30011.666511307696055

 MD| ***************************************************************************
 MD| Step number                                                              24
 MD| Time [fs]                                                         12.000000
 MD| Conserved quantity [hartree]                             0.301135558838E+05
 MD| ---------------------------------------------------------------------------
 MD|                                          Instantaneous             Averages
 MD| CPU time per MD step [s]                      0.087758             0.076393
 MD| Energy drift per atom [K]           0.194996165031E+05   0.248778730625E+04
 MD| Potential energy [hartree]          0.300116665113E+05   0.300132185123E+05
 MD| Kinetic energy [hartree]            0.968943415934E+02   0.163757879935E+02
 MD| Temperature [K]                           13288.502324          2245.845250
 MD| ***************************************************************************
 MD| Estimated peak process memory after this step [MiB]                     270

 ENERGY| Total FORCE_EVAL ( NNP ) energy [hartree]         30005.825543677659880

 MD| ***************************************************************************
 MD| Step number                                                              25
 MD| Time [fs]                                                         12.500000
 MD| Conserved quantity [hartree]                             0.301214174068E+05
 MD| ---------------------------------------------------------------------------
 MD|                                          Instantaneous             Averages
 MD| CPU time per MD step [s]                      0.334836             0.086731
 MD| Energy drift per atom [K]           0.211158076872E+05   0.323290812149E+04
 MD| Potential energy [hartree]          0.300058255437E+05   0.300129227935E+05
 MD| Kinetic energy [hartree]            0.108919285311E+03   0.200775278862E+02
 MD| Temperature [K]                           14937.654275          2753.517611
 MD| ***************************************************************************
 MD| Estimated peak process memory after this step [MiB]                     270

 ENERGY| Total FORCE_EVAL ( NNP ) energy [hartree]         30011.445891609309911

 MD| ***************************************************************************
 MD| Step number                                                              26
 MD| Time [fs]                                                         13.000000
 MD| Conserved quantity [hartree]                             0.301330278290E+05
 MD| ---------------------------------------------------------------------------
 MD|                                          Instantaneous             Averages
 MD| CPU time per MD step [s]                      0.129629             0.088381
 MD| Energy drift per atom [K]           0.235027067570E+05   0.401251576132E+04
 MD| Potential energy [hartree]          0.300114458916E+05   0.300128659896E+05
 MD| Kinetic energy [hartree]            0.113044904399E+03   0.236531962136E+02
 MD| Temperature [K]                           15503.459233          3243.899981
 MD| ***************************************************************************
 MD| Estimated peak process memory after this step [MiB]                     270

 ENERGY| Total FORCE_EVAL ( NNP ) energy [hartree]         30012.038930366517889

 MD| ***************************************************************************
 MD| Step number                                                              27
 MD| Time [fs]                                                         13.500000
 MD| Conserved quantity [hartree]                             0.301463774224E+05
 MD| ---------------------------------------------------------------------------
 MD|                                          Instantaneous             Averages
 MD| CPU time per MD step [s]                      0.100444             0.088828
 MD| Energy drift per atom [K]           0.262471489167E+05   0.483602069300E+04
 MD| Potential energy [hartree]          0.300120389304E+05   0.300128353578E+05
 MD| Kinetic energy [hartree]            0.123932830914E+03   0.273672567581E+02
 MD| Temperature [K]                           16996.675807          3753.262049
 MD| ***************************************************************************
 MD| Estimated peak process memory after this step [MiB]                     270

 ENERGY| Total FORCE_EVAL ( NNP ) energy [hartree]         30008.405973177916167

 MD| ***************************************************************************
 MD| Step number                                                              28
 MD| Time [fs]                                                         14.000000
 MD| Conserved quantity [hartree]                             0.301460531721E+05
 MD| ---------------------------------------------------------------------------
 MD|                                          Instantaneous             Averages
 MD| CPU time per MD step [s]                      0.093531             0.088996
 MD| Energy drift per atom [K]           0.261804887518E+05   0.559832312367E+04
 MD| Potential energy [hartree]          0.300084059732E+05   0.300126771655E+05
 MD| Kinetic energy [hartree]            0.125078070885E+03   0.308569286912E+02
 MD| Temperature [K]                           17153.738890          4231.850507
 MD| ***************************************************************************
 MD| Estimated peak process memory after this step [MiB]                     270

 ENERGY| Total FORCE_EVAL ( NNP ) energy [hartree]         30001.601094479145104

 MD| ***************************************************************************
 MD| Step number                                                              29
 MD| Time [fs]                                                         14.500000
 MD| Conserved quantity [hartree]                             0.301562033225E+05
 MD| ---------------------------------------------------------------------------
 MD|                                          Instantaneous             Averages
 MD| CPU time per MD step [s]                      0.111228             0.089762
 MD| Energy drift per atom [K]           0.282671815554E+05   0.638000789718E+04
 MD| Potential energy [hartree]          0.300016010945E+05   0.300122952320E+05
 MD| Kinetic energy [hartree]            0.139911218577E+03   0.346174214458E+02
 MD| Temperature [K]                           19188.019884          4747.580486
 MD| ***************************************************************************
 MD| Estimated peak process memory after this step [MiB]                     270

 ENERGY| Total FORCE_EVAL ( NNP ) energy [hartree]         30009.613343163560785

 MD| ***************************************************************************
 MD| Step number                                                              30
 MD| Time [fs]                                                         15.000000
 MD| Conserved quantity [hartree]                             0.301903829175E+05
 MD| ---------------------------------------------------------------------------
 MD|                                          Instantaneous             Averages
 MD| CPU time per MD step [s]                      0.107620             0.090358
 MD| Energy drift per atom [K]           0.352939065501E+05   0.734380451894E+04
 MD| Potential energy [hartree]          0.300096133432E+05   0.300122058357E+05
 MD| Kinetic energy [hartree]            0.163601603239E+03   0.389168941723E+02
 MD| Temperature [K]                           22437.020047          5337.228471
 MD| ***************************************************************************
 MD| Estimated peak process memory after this step [MiB]                     270

 ENERGY| Total FORCE_EVAL ( NNP ) energy [hartree]         30008.407338856883143

 MD| ***************************************************************************
 MD| Step number                                                              31
 MD| Time [fs]                                                         15.500000
 MD| Conserved quantity [hartree]                             0.301897824392E+05
 MD| ---------------------------------------------------------------------------
 MD|                                          Instantaneous             Averages
 MD| CPU time per MD step [s]                      0.105646             0.090851
 MD| Energy drift per atom [K]           0.351704587371E+05   0.824143852598E+04
 MD| Potential energy [hartree]          0.300084073389E+05   0.300120833035E+05
 MD| Kinetic energy [hartree]            0.161571312574E+03   0.428734883143E+02
 MD| Temperature [K]                           22158.577346          5879.852628
 MD| ***************************************************************************
 MD| Estimated peak process memory after this step [MiB]                     270

 ENERGY| Total FORCE_EVAL ( NNP ) energy [hartree]         30004.143000786836637

 MD| ***************************************************************************
 MD| Step number                                                              32
 MD| Time [fs]                                                         16.000000
 MD| Conserved quantity [hartree]                             0.301899435177E+05
 MD| ---------------------------------------------------------------------------
 MD|                                          Instantaneous             Averages
 MD| CPU time per MD step [s]                      0.119209             0.091737
 MD| Energy drift per atom [K]           0.352035736555E+05   0.908400524877E+04
 MD| Potential energy [hartree]          0.300041430008E+05   0.300118351691E+05
 MD| Kinetic energy [hartree]            0.163267769184E+03   0.466358095914E+02
 MD| Temperature [K]                           22391.236625          6395.833378
 MD| ***************************************************************************
 MD| Estimated peak process memory after this step [MiB]                     270

 ENERGY| Total FORCE_EVAL ( NNP ) energy [hartree]         30005.535808905558952

 MD| ***************************************************************************
 MD| Step number                                                              33
 MD| Time [fs]                                                         16.500000
 MD| Conserved quantity [hartree]                             0.301990239263E+05
 MD| ---------------------------------------------------------------------------
 MD|                                          Instantaneous             Averages
 MD| CPU time per MD step [s]                      0.077902             0.091318
 MD| Energy drift per atom [K]           0.370703463271E+05   0.993207619054E+04
 MD| Potential energy [hartree]          0.300055358089E+05   0.300116442794E+05
 MD| Kinetic energy [hartree]            0.168223875552E+03   0.503202964387E+02
 MD| Temperature [K]                           23070.938142          6901.139583
 MD| ***************************************************************************
 MD| Estimated peak process memory after this step [MiB]                     270

 ENERGY| Total FORCE_EVAL ( NNP ) energy [hartree]         30006.918552047020057

 MD| ***************************************************************************
 MD| Step number                                                              34
 MD| Time [fs]                                                         17.000000
 MD| Conserved quantity [hartree]                             0.302263290022E+05
 MD| ---------------------------------------------------------------------------
 MD|                                          Instantaneous             Averages
 MD| CPU time per MD step [s]                      0.077673             0.090916
 MD| Energy drift per atom [K]           0.426837908125E+05   0.108953619147E+05
 MD| Potential energy [hartree]          0.300069185520E+05   0.300115052874E+05
 MD| Kinetic energy [hartree]            0.191318526662E+03   0.544673032100E+02
 MD| Temperature [K]                           26238.236870          7469.877739
 MD| ***************************************************************************
 MD| Estimated peak process memory after this step [MiB]                     270

 ENERGY| Total FORCE_EVAL ( NNP ) energy [hartree]         30005.915157589162845

 MD| ***************************************************************************
 MD| Step number                                                              35
 MD| Time [fs]                                                         17.500000
 MD| Conserved quantity [hartree]                             0.302275495917E+05
 MD| ---------------------------------------------------------------------------
 MD|                                          Instantaneous             Averages
 MD| CPU time per MD step [s]                      0.153995             0.092719
 MD| Energy drift per atom [K]           0.429347226078E+05   0.118107722202E+05
 MD| Potential energy [hartree]          0.300059151576E+05   0.300113455694E+05
 MD| Kinetic energy [hartree]            0.190569799515E+03   0.583559459616E+02
 MD| Temperature [K]                           26135.553243          8003.182753
 MD| ***************************************************************************
 MD| Estimated peak process memory after this step [MiB]                     270

 ENERGY| Total FORCE_EVAL ( NNP ) energy [hartree]         30003.514791034827795

 MD| ***************************************************************************
 MD| Step number                                                              36
 MD| Time [fs]                                                         18.000000
 MD| Conserved quantity [hartree]                             0.302241743280E+05
 MD| ---------------------------------------------------------------------------
 MD|                                          Instantaneous             Averages
 MD| CPU time per MD step [s]                      0.125508             0.093629
 MD| Energy drift per atom [K]           0.422408276037E+05   0.126560515364E+05
 MD| Potential energy [hartree]          0.300035147910E+05   0.300111280478E+05
 MD| Kinetic energy [hartree]            0.186604976218E+03   0.619184190243E+02
 MD| Temperature [K]                           25591.800505          8491.755468
 MD| ***************************************************************************
 MD| Estimated peak process memory after this step [MiB]                     270

 ENERGY| Total FORCE_EVAL ( NNP ) energy [hartree]         30003.137635017137654

 MD| ***************************************************************************
 MD| Step number                                                              37
 MD| Time [fs]                                                         18.500000
 MD| Conserved quantity [hartree]                             0.302233736934E+05
 MD| ---------------------------------------------------------------------------
 MD|                                          Instantaneous             Averages
 MD| CPU time per MD step [s]                      0.067020             0.092910
 MD| Energy drift per atom [K]           0.420762311955E+05   0.134511915272E+05
 MD| Potential energy [hartree]          0.300031376350E+05   0.300109120907E+05
 MD| Kinetic energy [hartree]            0.183121538912E+03   0.651941790212E+02
 MD| Temperature [K]                           25114.067089          8941.007134
 MD| ***************************************************************************
 MD| Estimated peak process memory after this step [MiB]                     270

 ENERGY| Total FORCE_EVAL ( NNP ) energy [hartree]         30005.962557412960450

 MD| ***************************************************************************
 MD| Step number                                                              38
 MD| Time [fs]                                                         19.000000
 MD| Conserved quantity [hartree]                             0.302269732862E+05
 MD| ---------------------------------------------------------------------------
 MD|                                          Instantaneous             Averages
 MD| CPU time per MD step [s]                      0.067639             0.092245
 MD| Energy drift per atom [K]           0.428162442993E+05   0.142239560739E+05
 MD| Potential energy [hartree]          0.300059625574E+05   0.300107818398E+05
 MD| Kinetic energy [hartree]            0.180942117730E+03   0.682401774083E+02
 MD| Temperature [K]                           24815.171994          9358.748314
 MD| ***************************************************************************
 MD| Estimated peak process memory after this step [MiB]                     270

 ENERGY| Total FORCE_EVAL ( NNP ) energy [hartree]         30005.241265222306538

 MD| ***************************************************************************
 MD| Step number                                                              39
 MD| Time [fs]                                                         19.500000
 MD| Conserved quantity [hartree]                             0.302272020854E+05
 MD| ---------------------------------------------------------------------------
 MD|                                          Instantaneous             Averages
 MD| CPU time per MD step [s]                      0.068058             0.091625
 MD| Energy drift per atom [K]           0.428632813962E+05   0.149582977488E+05
 MD| Potential energy [hartree]          0.300052412652E+05   0.300106397738E+05
 MD| Kinetic energy [hartree]            0.178830304597E+03   0.710758216952E+02
 MD| Temperature [K]                           24525.548955          9747.640639
 MD| ***************************************************************************
 MD| Estimated peak process memory after this step [MiB]                     270

 ENERGY| Total FORCE_EVAL ( NNP ) energy [hartree]         30002.523125379226258

 MD| ***************************************************************************
 MD| Step number                                                              40
 MD| Time [fs]                                                         20.000000
 MD| Conserved quantity [hartree]                             0.302254264704E+05
 MD| ---------------------------------------------------------------------------
 MD|                                          Instantaneous             Averages
 MD| CPU time per MD step [s]                      0.062685             0.090902
 MD| Energy drift per atom [K]           0.424982461156E+05   0.156467964580E+05
 MD| Potential energy [hartree]          0.300025231254E+05   0.300104368576E+05
 MD| Kinetic energy [hartree]            0.176838470022E+03   0.737198879034E+02
 MD| Temperature [K]                           24252.380285         10110.259130
 MD| ***************************************************************************
 MD| Estimated peak process memory after this step [MiB]                     270

 ENERGY| Total FORCE_EVAL ( NNP ) energy [hartree]         29996.166575199520594

 MD| ***************************************************************************
 MD| Step number                                                              41
 MD| Time [fs]                                                         20.500000
 MD| Conserved quantity [hartree]                             0.302290568527E+05
 MD| ---------------------------------------------------------------------------
 MD|                                          Instantaneous             Averages
 MD| CPU time per MD step [s]                      0.117617             0.091553
 MD| Energy drift per atom [K]           0.432445890164E+05   0.163199133496E+05
 MD| Potential energy [hartree]          0.299961665752E+05   0.300100888019E+05
 MD| Kinetic energy [hartree]            0.183886533267E+03   0.764068792537E+02
 MD| Temperature [K]                           25218.981671         10478.764558
 MD| ***************************************************************************
 MD| Estimated peak process memory after this step [MiB]                     270

 ENERGY| Total FORCE_EVAL ( NNP ) energy [hartree]         29993.103249798929028

 MD| ***************************************************************************
 MD| Step number                                                              42
 MD| Time [fs]                                                         21.000000
 MD| Conserved quantity [hartree]                             0.302413711098E+05
 MD| ---------------------------------------------------------------------------
 MD|                                          Instantaneous             Averages
 MD| CPU time per MD step [s]                      0.138891             0.092680
 MD| Energy drift per atom [K]           0.457761841989E+05   0.170212531318E+05
 MD| Potential energy [hartree]          0.299931032498E+05   0.300096843840E+05
 MD| Kinetic energy [hartree]            0.196163601209E+03   0.792582297765E+02
 MD| Temperature [K]                           26902.711011         10869.810902
 MD| ***************************************************************************
 MD| Estimated peak process memory after this step [MiB]                     270

 ENERGY| Total FORCE_EVAL ( NNP ) energy [hartree]         29998.780720594320883

 MD| ***************************************************************************
 MD| Step number                                                              43
 MD| Time [fs]                                                         21.500000
 MD| Conserved quantity [hartree]                             0.302661887618E+05
 MD| ---------------------------------------------------------------------------
 MD|                                          Instantaneous             Averages
 MD| CPU time per MD step [s]                      0.107041             0.093014
 MD| Energy drift per atom [K]           0.508782579810E+05   0.178086253375E+05
 MD| Potential energy [hartree]          0.299987807206E+05   0.300094308104E+05
 MD| Kinetic energy [hartree]            0.211909456244E+03   0.823431420199E+02
 MD| Temperature [K]                           29062.164575         11292.888894
 MD| ***************************************************************************
 MD| Estimated peak process memory after this step [MiB]                     270

 ENERGY| Total FORCE_EVAL ( NNP ) energy [hartree]         29981.199727062896272

 MD| ***************************************************************************
 MD| Step number                                                              44
 MD| Time [fs]                                                         22.000000
 MD| Conserved quantity [hartree]                             0.302687665941E+05
 MD| ---------------------------------------------------------------------------
 MD|                                          Instantaneous             Averages
 MD| CPU time per MD step [s]                      0.053794             0.092123
 MD| Energy drift per atom [K]           0.514082150550E+05   0.185722523766E+05
 MD| Potential energy [hartree]          0.299811997271E+05   0.300087891949E+05
 MD| Kinetic energy [hartree]            0.228395837090E+03   0.856625214533E+02
 MD| Temperature [K]                           31323.176999         11748.122715
 MD| ***************************************************************************
 MD| Estimated peak process memory after this step [MiB]                     270

 ENERGY| Total FORCE_EVAL ( NNP ) energy [hartree]         29983.032973540070088

 MD| ***************************************************************************
 MD| Step number                                                              45
 MD| Time [fs]                                                         22.500000
 MD| Conserved quantity [hartree]                             0.303065189991E+05
 MD| ---------------------------------------------------------------------------
 MD|                                          Instantaneous             Averages
 MD| CPU time per MD step [s]                      0.052539             0.091243
 MD| Energy drift per atom [K]           0.591694470979E+05   0.194744122593E+05
 MD| Potential energy [hartree]          0.299830329735E+05   0.300082168344E+05
 MD| Kinetic energy [hartree]            0.260291428184E+03   0.895431638251E+02
 MD| Temperature [K]                           35697.474088         12280.330523
 MD| ***************************************************************************
 MD| Estimated peak process memory after this step [MiB]                     270

 ENERGY| Total FORCE_EVAL ( NNP ) energy [hartree]         29993.591208975707559

 MD| ***************************************************************************
 MD| Step number                                                              46
 MD| Time [fs]                                                         23.000000
 MD| Conserved quantity [hartree]                             0.303215898009E+05
 MD| ---------------------------------------------------------------------------
 MD|                                          Instantaneous             Averages
 MD| CPU time per MD step [s]                      0.067687             0.090731
 MD| Energy drift per atom [K]           0.622677394908E+05   0.204047019817E+05
 MD| Potential energy [hartree]          0.299935912090E+05   0.300078988860E+05
 MD| Kinetic energy [hartree]            0.260593419810E+03   0.932616476509E+02
 MD| Temperature [K]                           35738.890504         12790.299218
 MD| ***************************************************************************
 MD| Estimated peak process memory after this step [MiB]                     270

 ENERGY| Total FORCE_EVAL ( NNP ) energy [hartree]         29992.137963943649083

 MD| ***************************************************************************
 MD| Step number                                                              47
 MD| Time [fs]                                                         23.500000
 MD| Conserved quantity [hartree]                             0.303210559753E+05
 MD| ---------------------------------------------------------------------------
 MD|                                          Instantaneous             Averages
 MD| CPU time per MD step [s]                      0.115854             0.091266
 MD| Energy drift per atom [K]           0.621579943205E+05   0.212930699038E+05
 MD| Potential energy [hartree]          0.299921379639E+05   0.300075635473E+05
 MD| Kinetic energy [hartree]            0.257140916373E+03   0.967484406024E+02
 MD| Temperature [K]                           35265.399492         13268.492841
 MD| ***************************************************************************
 MD| Estimated peak process memory after this step [MiB]                     270

 ENERGY| Total FORCE_EVAL ( NNP ) energy [hartree]         29988.065158559918927

 MD| ***************************************************************************
 MD| Step number                                                              48
 MD| Time [fs]                                                         24.000000
 MD| Conserved quantity [hartree]                             0.303238742597E+05
 MD| ---------------------------------------------------------------------------
 MD|                                          Instantaneous             Averages
 MD| CPU time per MD step [s]                      0.064562             0.090709
 MD| Energy drift per atom [K]           0.627373841502E+05   0.221564931173E+05
 MD| Potential energy [hartree]          0.299880651586E+05   0.300071573308E+05
 MD| Kinetic energy [hartree]            0.259682490700E+03   0.100142899979E+03
 MD| Temperature [K]                           35613.961810         13734.023445
 MD| ***************************************************************************
 MD| Estimated peak process memory after this step [MiB]                     270

 ENERGY| Total FORCE_EVAL ( NNP ) energy [hartree]         29985.379416945801495

 MD| ***************************************************************************
 MD| Step number                                                              49
 MD| Time [fs]                                                         24.500000
 MD| Conserved quantity [hartree]                             0.303354818558E+05
 MD| ---------------------------------------------------------------------------
 MD|                                          Instantaneous             Averages
 MD| CPU time per MD step [s]                      0.053789             0.089956
 MD| Energy drift per atom [K]           0.651237022267E+05   0.230333749358E+05
 MD| Potential energy [hartree]          0.299853794169E+05   0.300067128836E+05
 MD| Kinetic energy [hartree]            0.269663565018E+03   0.103602505388E+03
 MD| Temperature [K]                           36982.808815         14208.488452
 MD| ***************************************************************************
 MD| Estimated peak process memory after this step [MiB]                     270

 ENERGY| Total FORCE_EVAL ( NNP ) energy [hartree]         29984.902448137479951

 MD| ***************************************************************************
 MD| Step number                                                              50
 MD| Time [fs]                                                         25.000000
 MD| Conserved quantity [hartree]                             0.303472511708E+05
 MD| ---------------------------------------------------------------------------
 MD|                                          Instantaneous             Averages
 MD| CPU time per MD step [s]                      0.066354             0.089484
 MD| Energy drift per atom [K]           0.675432668618E+05   0.239235727743E+05
 MD| Potential energy [hartree]          0.299849024481E+05   0.300062766749E+05
 MD| Kinetic energy [hartree]            0.277554857782E+03   0.107081552436E+03
 MD| Temperature [K]                           38065.054284         14685.619769
 MD| ***************************************************************************
 MD| Estimated peak process memory after this step [MiB]                     270

 ENERGY| Total FORCE_EVAL ( NNP ) energy [hartree]         29982.154515530051867

 MD| ***************************************************************************
 MD| Step number                                                              51
 MD| Time [fs]                                                         25.500000
 MD| Conserved quantity [hartree]                             0.303760228092E+05
 MD| ---------------------------------------------------------------------------
 MD|                                          Instantaneous             Averages
 MD| CPU time per MD step [s]                      0.077408             0.089247
 MD| Energy drift per atom [K]           0.734582108768E+05   0.248948401881E+05
 MD| Potential energy [hartree]          0.299821545155E+05   0.300058036914E+05
 MD| Kinetic energy [hartree]            0.304303457279E+03   0.110948648610E+03
 MD| Temperature [K]                           41733.471044         15215.969794
 MD| ***************************************************************************
 MD| Estimated peak process memory after this step [MiB]                     270

 ENERGY| Total FORCE_EVAL ( NNP ) energy [hartree]         29976.541232832383685

 MD| ***************************************************************************
 MD| Step number                                                              52
 MD| Time [fs]                                                         26.000000
 MD| Conserved quantity [hartree]                             0.303859308207E+05
 MD| ---------------------------------------------------------------------------
 MD|                                          Instantaneous             Averages
 MD| CPU time per MD step [s]                      0.150433             0.090424
 MD| Energy drift per atom [K]           0.754951241844E+05   0.258679225727E+05
 MD| Potential energy [hartree]          0.299765412328E+05   0.300052409518E+05
 MD| Kinetic energy [hartree]            0.314728326823E+03   0.114867488575E+03
 MD| Temperature [K]                           43163.182014         15753.416183
 MD| ***************************************************************************
 MD| Estimated peak process memory after this step [MiB]                     270

 ENERGY| Total FORCE_EVAL ( NNP ) energy [hartree]         29971.255034223457187

 MD| ***************************************************************************
 MD| Step number                                                              53
 MD| Time [fs]                                                         26.500000
 MD| Conserved quantity [hartree]                             0.303902126442E+05
 MD| ---------------------------------------------------------------------------
 MD|                                          Instantaneous             Averages
 MD| CPU time per MD step [s]                      0.058259             0.089817
 MD| Energy drift per atom [K]           0.763753919485E+05   0.268208936930E+05
 MD| Potential energy [hartree]          0.299712550342E+05   0.300045997081E+05
 MD| Kinetic energy [hartree]            0.319117993650E+03   0.118721271690E+03
 MD| Temperature [K]                           43765.199602         16281.940398
 MD| ***************************************************************************
 MD| Estimated peak process memory after this step [MiB]                     270

 ENERGY| Total FORCE_EVAL ( NNP ) energy [hartree]         29945.911050368929864

 MD| ***************************************************************************
 MD| Step number                                                              54
 MD| Time [fs]                                                         27.000000
 MD| Conserved quantity [hartree]                             0.304095789444E+05
 MD| ---------------------------------------------------------------------------
 MD|                                          Instantaneous             Averages
 MD| CPU time per MD step [s]                      0.056243             0.089195
 MD| Energy drift per atom [K]           0.803567634641E+05   0.278122986887E+05
 MD| Potential energy [hartree]          0.299459110504E+05   0.300035128811E+05
 MD| Kinetic energy [hartree]            0.358332143647E+03   0.123158510059E+03
 MD| Temperature [K]                           49143.195002         16890.482150
 MD| ***************************************************************************
 MD| Estimated peak process memory after this step [MiB]                     270

 ENERGY| Total FORCE_EVAL ( NNP ) energy [hartree]         29943.042405714739289

 MD| ***************************************************************************
 MD| Step number                                                              55
 MD| Time [fs]                                                         27.500000
 MD| Conserved quantity [hartree]                             0.304823738774E+05
 MD| ---------------------------------------------------------------------------
 MD|                                          Instantaneous             Averages
 MD| CPU time per MD step [s]                      0.068366             0.088816
 MD| Energy drift per atom [K]           0.953221243589E+05   0.290397500645E+05
 MD| Potential energy [hartree]          0.299430424057E+05   0.300024134179E+05
 MD| Kinetic energy [hartree]            0.427717126217E+03   0.128695939444E+03
 MD| Temperature [K]                           58658.946768         17649.908779
 MD| ***************************************************************************
 MD| Estimated peak process memory after this step [MiB]                     270

 ENERGY| Total FORCE_EVAL ( NNP ) energy [hartree]         29947.476967690708989

 MD| ***************************************************************************
 MD| Step number                                                              56
 MD| Time [fs]                                                         28.000000
 MD| Conserved quantity [hartree]                             0.305217791035E+05
 MD| ---------------------------------------------------------------------------
 MD|                                          Instantaneous             Averages
 MD| CPU time per MD step [s]                      0.069264             0.088467
 MD| Energy drift per atom [K]           0.103423147410E+06   0.303680250171E+05
 MD| Potential energy [hartree]          0.299474769677E+05   0.300014324099E+05
 MD| Kinetic energy [hartree]            0.455370915241E+03   0.134529421155E+03
 MD| Temperature [K]                           62451.505071         18449.937285
 MD| ***************************************************************************
 MD| Estimated peak process memory after this step [MiB]                     270

 ENERGY| Total FORCE_EVAL ( NNP ) energy [hartree]         29902.628274916860391

 MD| ***************************************************************************
 MD| Step number                                                              57
 MD| Time [fs]                                                         28.500000
 MD| Conserved quantity [hartree]                             0.305224990179E+05
 MD| ---------------------------------------------------------------------------
 MD|                                          Instantaneous             Averages
 MD| CPU time per MD step [s]                      0.080947             0.088335
 MD| Energy drift per atom [K]           0.103571149161E+06   0.316522903530E+05
 MD| Potential energy [hartree]          0.299026282749E+05   0.299996990040E+05
 MD| Kinetic energy [hartree]            0.493221181213E+03   0.140822259051E+03
 MD| Temperature [K]                           67642.451612         19312.963852
 MD| ***************************************************************************
 MD| Estimated peak process memory after this step [MiB]                     270

 ENERGY| Total FORCE_EVAL ( NNP ) energy [hartree]         29892.805067001187126

 MD| ***************************************************************************
 MD| Step number                                                              58
 MD| Time [fs]                                                         29.000000
 MD| Conserved quantity [hartree]                             0.305628282799E+05
 MD| ---------------------------------------------------------------------------
 MD|                                          Instantaneous             Averages
 MD| CPU time per MD step [s]                      0.069726             0.088014
 MD| Energy drift per atom [K]           0.111862137788E+06   0.330352187571E+05
 MD| Potential energy [hartree]          0.298928050670E+05   0.299978560051E+05
 MD| Kinetic energy [hartree]            0.534770958219E+03   0.147614478002E+03
 MD| Temperature [K]                           73340.764838         20244.477662
 MD| ***************************************************************************
 MD| Estimated peak process memory after this step [MiB]                     270

 ENERGY| Total FORCE_EVAL ( NNP ) energy [hartree]         29890.691603923663934

 MD| ***************************************************************************
 MD| Step number                                                              59
 MD| Time [fs]                                                         29.500000
 MD| Conserved quantity [hartree]                             0.306135834896E+05
 MD| ---------------------------------------------------------------------------
 MD|                                          Instantaneous             Averages
 MD| CPU time per MD step [s]                      0.063027             0.087591
 MD| Energy drift per atom [K]           0.122296518289E+06   0.345481221390E+05
 MD| Potential energy [hartree]          0.298906916039E+05   0.299960396593E+05
 MD| Kinetic energy [hartree]            0.578364162636E+03   0.154915320114E+03
[...]
 MD| Potential energy [hartree]          0.289252495769E+05   0.298710281497E+05
 MD| Kinetic energy [hartree]            0.436048357085E+04   0.724228709225E+03
 MD| Temperature [K]                          598015.272214         99323.807017
 MD| ***************************************************************************
 MD| Estimated peak process memory after this step [MiB]                     270

 ENERGY| Total FORCE_EVAL ( NNP ) energy [hartree]         28755.152341112989234

 MD| ***************************************************************************
 MD| Step number                                                              91
 MD| Time [fs]                                                         45.500000
 MD| Conserved quantity [hartree]                             0.347877087467E+05
 MD| ---------------------------------------------------------------------------
 MD|                                          Instantaneous             Averages
 MD| CPU time per MD step [s]                      0.072465             0.086234
 MD| Energy drift per atom [K]           0.980423428050E+06   0.165884099490E+06
 MD| Potential energy [hartree]          0.287551523411E+05   0.298587657782E+05
 MD| Kinetic energy [hartree]            0.490973209320E+04   0.770223251906E+03
 MD| Temperature [K]                          673341.551803        105631.694322
 MD| ***************************************************************************
 MD| Estimated peak process memory after this step [MiB]                     270

 ENERGY| Total FORCE_EVAL ( NNP ) energy [hartree]         28600.992305327279610

 MD| ***************************************************************************
 MD| Step number                                                              92
 MD| Time [fs]                                                         46.000000
 MD| Conserved quantity [hartree]                             0.356614583194E+05
 MD| ---------------------------------------------------------------------------
 MD|                                          Instantaneous             Averages
 MD| CPU time per MD step [s]                      0.070102             0.086059
 MD| Energy drift per atom [K]           0.116005100855E+07   0.176690261545E+06
 MD| Potential energy [hartree]          0.286009923053E+05   0.298450943274E+05
 MD| Kinetic energy [hartree]            0.584789613501E+04   0.825415348462E+03
 MD| Temperature [K]                          802005.360697        113200.973305
 MD| ***************************************************************************
 MD| Estimated peak process memory after this step [MiB]                     270

 ENERGY| Total FORCE_EVAL ( NNP ) energy [hartree]         28628.802259184762079

 MD| ***************************************************************************
 MD| Step number                                                              93
 MD| Time [fs]                                                         46.500000
 MD| Conserved quantity [hartree]                             0.360751675533E+05
 MD| ---------------------------------------------------------------------------
 MD|                                          Instantaneous             Averages
 MD| CPU time per MD step [s]                      0.059055             0.085769
 MD| Energy drift per atom [K]           0.124510236771E+07   0.188178563762E+06
 MD| Potential energy [hartree]          0.286288022592E+05   0.298320159181E+05
 MD| Kinetic energy [hartree]            0.613441981585E+04   0.882501418004E+03
 MD| Temperature [K]                          841300.437541        121029.999802
 MD| ***************************************************************************
 MD| Estimated peak process memory after this step [MiB]                     270

 ENERGY| Total FORCE_EVAL ( NNP ) energy [hartree]         28586.012076449718734

 MD| ***************************************************************************
 MD| Step number                                                              94
 MD| Time [fs]                                                         47.000000
 MD| Conserved quantity [hartree]                             0.366265876135E+05
 MD| ---------------------------------------------------------------------------
 MD|                                          Instantaneous             Averages
 MD| CPU time per MD step [s]                      0.069414             0.085595
 MD| Energy drift per atom [K]           0.135846465636E+07   0.200628415811E+06
 MD| Potential energy [hartree]          0.285860120764E+05   0.298187605581E+05
 MD| Kinetic energy [hartree]            0.662183372099E+04   0.943558144631E+03
 MD| Temperature [K]                          908146.454601        129403.579108
 MD| ***************************************************************************
 MD| Estimated peak process memory after this step [MiB]                     270

 ENERGY| Total FORCE_EVAL ( NNP ) energy [hartree]         28463.615482725439506

 MD| ***************************************************************************
 MD| Step number                                                              95
 MD| Time [fs]                                                         47.500000
 MD| Conserved quantity [hartree]                             0.370881246972E+05
 MD| ---------------------------------------------------------------------------
 MD|                                          Instantaneous             Averages
 MD| CPU time per MD step [s]                      0.066556             0.085394
 MD| Energy drift per atom [K]           0.145334858221E+07   0.213814943878E+06
 MD| Potential energy [hartree]          0.284636154827E+05   0.298044958730E+05
 MD| Kinetic energy [hartree]            0.709153697187E+04   0.100827371123E+04
 MD| Temperature [K]                          972563.557170        138278.947298
 MD| ***************************************************************************
 MD| Estimated peak process memory after this step [MiB]                     270

 ENERGY| Total FORCE_EVAL ( NNP ) energy [hartree]         28337.052340503985761

 MD| ***************************************************************************
 MD| Step number                                                              96
 MD| Time [fs]                                                         48.000000
 MD| Conserved quantity [hartree]                             0.374573068773E+05
 MD| ---------------------------------------------------------------------------
 MD|                                          Instantaneous             Averages
 MD| CPU time per MD step [s]                      0.062238             0.085153
 MD| Energy drift per atom [K]           0.152924596043E+07   0.227517350301E+06
 MD| Potential energy [hartree]          0.283370523405E+05   0.297892100029E+05
 MD| Kinetic energy [hartree]            0.746552669061E+04   0.107553676310E+04
 MD| Temperature [K]                         1023854.098648        147503.688458
 MD| ***************************************************************************
 MD| Estimated peak process memory after this step [MiB]                     270

 ENERGY| Total FORCE_EVAL ( NNP ) energy [hartree]         28185.110399772253004

 MD| ***************************************************************************
 MD| Step number                                                              97
 MD| Time [fs]                                                         48.500000
 MD| Conserved quantity [hartree]                             0.377973783163E+05
 MD| ---------------------------------------------------------------------------
 MD|                                          Instantaneous             Averages
 MD| CPU time per MD step [s]                      0.065976             0.084955
 MD| Energy drift per atom [K]           0.159915868107E+07   0.241657982577E+06
 MD| Potential energy [hartree]          0.281851103998E+05   0.297726728936E+05
 MD| Kinetic energy [hartree]            0.783037324408E+04   0.114517425260E+04
 MD| Temperature [K]                         1073890.707534        157054.070098
 MD| ***************************************************************************
 MD| Estimated peak process memory after this step [MiB]                     270

 ENERGY| Total FORCE_EVAL ( NNP ) energy [hartree]         28041.922128398829955

 MD| ***************************************************************************
 MD| Step number                                                              98
 MD| Time [fs]                                                         49.000000
 MD| Conserved quantity [hartree]                             0.381781280015E+05
 MD| ---------------------------------------------------------------------------
 MD|                                          Instantaneous             Averages
 MD| CPU time per MD step [s]                      0.066357             0.084765
 MD| Energy drift per atom [K]           0.167743413536E+07   0.256308759646E+06
 MD| Potential energy [hartree]          0.280419221284E+05   0.297550121715E+05
 MD| Kinetic energy [hartree]            0.822111277558E+04   0.121737770691E+04
 MD| Temperature [K]                         1127478.389611        166956.359073
 MD| ***************************************************************************
 MD| Estimated peak process memory after this step [MiB]                     270

 ENERGY| Total FORCE_EVAL ( NNP ) energy [hartree]         27909.160668482883921

 MD| ***************************************************************************
 MD| Step number                                                              99
 MD| Time [fs]                                                         49.500000
 MD| Conserved quantity [hartree]                             0.385876714544E+05
 MD| ---------------------------------------------------------------------------
 MD|                                          Instantaneous             Averages
 MD| CPU time per MD step [s]                      0.064564             0.084561
 MD| Energy drift per atom [K]           0.176162908303E+07   0.271514015438E+06
 MD| Potential energy [hartree]          0.279091606685E+05   0.297363672068E+05
 MD| Kinetic energy [hartree]            0.862293288197E+04   0.129218129454E+04
 MD| Temperature [K]                         1182585.708879        177215.241394
 MD| ***************************************************************************
 MD| Estimated peak process memory after this step [MiB]                     270

 ENERGY| Total FORCE_EVAL ( NNP ) energy [hartree]         27777.362532212126098

 MD| ***************************************************************************
 MD| Step number                                                             100
 MD| Time [fs]                                                         50.000000
 MD| Conserved quantity [hartree]                             0.393368139277E+05
 MD| ---------------------------------------------------------------------------
 MD|                                          Instantaneous             Averages
 MD| CPU time per MD step [s]                      0.063406             0.084350
 MD| Energy drift per atom [K]           0.191563963038E+07   0.287955271587E+06
 MD| Potential energy [hartree]          0.277773625322E+05   0.297167771601E+05
 MD| Kinetic energy [hartree]            0.935397263784E+04   0.137279920797E+04
 MD| Temperature [K]                         1282843.611817        188271.525098
 MD| ***************************************************************************
 MD| Estimated peak process memory after this step [MiB]                     270

 -------------------------------------------------------------------------------
 -                                                                             -
 -                                DBCSR STATISTICS                             -
 -                                                                             -
 -------------------------------------------------------------------------------
 COUNTER                                    TOTAL       BLAS       SMM       ACC
 flops inhomo. stacks                           0       0.0%      0.0%      0.0%
 flops total                         0.000000E+00       0.0%      0.0%      0.0%
 flops max/rank                      0.000000E+00       0.0%      0.0%      0.0%
 matmuls inhomo. stacks                         0       0.0%      0.0%      0.0%
 matmuls total                                  0       0.0%      0.0%      0.0%
 number of processed stacks                     0       0.0%      0.0%      0.0%
 average stack size                                     0.0       0.0       0.0
 marketing flops                     0.000000E+00
 -------------------------------------------------------------------------------
 -                                                                             -
 -                      DBCSR MESSAGE PASSING PERFORMANCE                      -
 -                                                                             -
 -------------------------------------------------------------------------------
 ROUTINE             CALLS      AVE VOLUME [Bytes]
 MP_Bcast                1                     12.
 MP_Allreduce           19                     21.
 -------------------------------------------------------------------------------

 MEMORY| Estimated peak process memory [MiB]                                 270

 -------------------------------------------------------------------------------
 -                                                                             -
 -                         MESSAGE PASSING PERFORMANCE                         -
 -                                                                             -
 -------------------------------------------------------------------------------

 ROUTINE             CALLS      AVE VOLUME [Bytes]
 MP_Bcast              286                 179373.
 MP_Allreduce         1444                   8790.
 -------------------------------------------------------------------------------


 -------------------------------------------------------------------------------
 -                                                                             -
 -                           R E F E R E N C E S                               -
 -                                                                             -
 -------------------------------------------------------------------------------
 
 CP2K version 2026.1 (Development Version), the CP2K developers group (2026).
 CP2K is freely available from https://www.cp2k.org/ .
 
 C. Schran, J. Behler, D. Marx.
 J. Chem. Theory Comput. 16, 88-99 (2020).
 Automated Fitting of Neural Network Potentials at Coupled Cluster Accuracy: 
 Protonated Water Clusters as Testing Ground.
 https://doi.org/10.1021/acs.jctc.9b00805

 C. Schran, K. Brezina, O. Marsalek.
 J. Chem. Phys. 153, 104105 (2020).
 Committee neural network potentials control generalization errors and enable 
 active learning.
 https://doi.org/10.1063/5.0016004

 O. Schuett, P. Messmer, J. Hutter, J. VandeVondele.
 Electronic Structure Calculations on Graphics Processing Units, 173-190 (2016).
 GPU-Accelerated Sparse Matrix-Matrix Multiplication for Linear Scaling Density 
 Functional Theory.
 https://doi.org/10.1002/9781118670712.ch8

 A. Heinecke, G. Henry, M. Hutchinson, H. Pabst.
 Proceedings of Intl. Supercomputing Conference, 981-991 (2016).
 LIBXSMM: Accelerating Small Matrix Multiplications by Runtime Code Generation.
 https://doi.org/10.1109/SC.2016.83

 J. Hutter, M. Iannuzzi, F. Schiffmann, J. VandeVondele.
 WIREs Comput Mol Sci. 4, 15-25 (2014).
 CP2K: atomistic simulations of condensed matter systems.
 https://doi.org/10.1002/wcms.1159

 U. Borstnik, J. VandeVondele, V. Weber, J. Hutter.
 Parallel Comput. 40, 47-58 (2014).
 Sparse matrix multiplication: The distributed block-compressed sparse row 
 library.
 https://doi.org/10.1016/j.parco.2014.03.012

 J. Behler.
 J. Chem. Phys. 134, 074106 (2011).
 Atom-centered symmetry functions for constructing high-dimensional neural 
 network potentials.
 https://doi.org/10.1063/1.3553717

 G. Bussi, D. Donadio, M. Parrinello.
 J. Chem. Phys. 126, 014101 (2007).
 Canonical sampling through velocity rescaling.
 https://doi.org/10.1063/1.2408420

 J. Behler, M. Parrinello.
 Phys. Rev. Lett. 98, 146401 (2007).
 Generalized neural-network representation of high-dimensional potential-energy 
 surfaces.
 https://doi.org/10.1103/PhysRevLett.98.146401

 M. Frigo, S. G. Johnson.
 Proc. IEEE 93, 216-231 (2005).
 The design and implementation of FFTW3.
 https://doi.org/10.1109/JPROC.2004.840301


 -------------------------------------------------------------------------------
 -                                                                             -
 -                                T I M I N G                                  -
 -                                                                             -
 -------------------------------------------------------------------------------
 SUBROUTINE                       CALLS  ASD         SELF TIME        TOTAL TIME
                                MAXIMUM       AVERAGE  MAXIMUM  AVERAGE  MAXIMUM
 CP2K                                 1  1.0    0.006    0.007    8.921    8.921
 qs_mol_dyn_low                       1  2.0    0.004    0.005    8.467    8.573
 velocity_verlet                    100  3.0    0.006    0.012    8.077    8.189
 md_output                          100  3.0    0.000    0.000    0.329    4.236
 mp_sum_dv                          609  4.4    4.052    4.172    4.052    4.172
 nnp_calc_energy_force              101  4.0    0.079    1.403    4.104    4.106
 csvr_particles                     200  4.0    0.078    0.109    3.950    4.061
 md_write_output                    101  4.0    0.047    1.576    0.119    3.973
 nnp_calc_acsf                     4343  5.0    0.073    0.083    1.941    2.604
 nnp_acsf_angular                  4343  6.0    1.792    2.440    1.792    2.440
 write_trajectory                   404  5.0    0.060    2.080    0.069    2.395
 mp_sum_b                           101  5.0    1.322    1.361    1.322    1.361
 mp_sum_dm                          301  5.0    0.754    1.261    0.754    1.261
 nnp_init                             1  2.0    0.000    0.000    0.338    0.340
 nnp_init_subsys                      1  3.0    0.000    0.000    0.334    0.335
 write_particle_coordinates         101  6.0    0.009    0.315    0.009    0.315
 write_restart                      100  4.0    0.008    0.268    0.210    0.294
 write_particle_distances             1  4.0    0.227    0.231    0.227    0.231
 update_input                         5  5.0    0.000    0.000    0.202    0.209
 update_motion                        5  6.0    0.000    0.000    0.179    0.184
 update_motion_THERMOSTAT_PARTI       5  7.0    0.000    0.000    0.178    0.184
 -------------------------------------------------------------------------------

 The number of warnings for this run is : 0
 
 -------------------------------------------------------------------------------
  **** **** ******  **  PROGRAM ENDED AT                 2026-05-02 15:46:06.101
 ***** ** ***  *** **   PROGRAM RAN ON                             phy-cerberus4
 **    ****   ******    PROGRAM RAN BY                                     crm98
 ***** **    ** ** **   PROGRAM PROCESS ID                               1225525
  **** **  *******  **  PROGRAM STOPPED IN /lsc/zeushome/crm98/cp2k-benchmarks/r
                                           esults/cp2k_optimized/NNP/NNP_size_sc
                                           aling_feature-nnp-verlet-cells_02-05_
                                           15-45/N_512
