 DBCSR| CPU Multiplication driver                                           XSMM (U)
 DBCSR| Multrec recursion limit                                              512 (U)
 DBCSR| Multiplication stack size                                           1000 (D)
 DBCSR| Maximum elements for images                                    UNLIMITED (U)
 DBCSR| Multiplicative factor virtual images                                   1 (U)
 DBCSR| Use multiplication densification                                       T (D)
 DBCSR| Multiplication size stacks                                             3 (U)
 DBCSR| Use memory pool for CPU allocation                                     F (U)
 DBCSR| Number of 3D layers                                               SINGLE (U)
 DBCSR| Use MPI memory allocation                                              F (U)
 DBCSR| Use RMA algorithm                                                      F (U)
 DBCSR| Use Communication thread                                               T (U)
 DBCSR| Communication thread load                                             87 (D)
 DBCSR| MPI: My process id                                                     0
 DBCSR| MPI: Number of processes                                              36
 DBCSR| OMP: Current number of threads                                         1
 DBCSR| OMP: Max number of threads                                             1
 DBCSR| Split modifier for TAS multiplication algorithm                  1.0E+00 (U)


  **** **** ******  **  PROGRAM STARTED AT               2026-05-02 15:46:40.114
 ***** ** ***  *** **   PROGRAM STARTED ON                         phy-cerberus4
 **    ****   ******    PROGRAM STARTED BY                                 crm98
 ***** **    ** ** **   PROGRAM PROCESS ID                               1225936
  **** **  *******  **  PROGRAM STARTED IN /lsc/zeushome/crm98/cp2k-benchmarks/r
                                           esults/cp2k_optimized/NNP/NNP_size_sc
                                           aling_feature-nnp-verlet-cells_02-05_
                                           15-45/N_4096

 CP2K| version string:                 CP2K version 2026.1 (Development Version)
 CP2K| source code revision number:                                   151b7d1223
 CP2K| cp2kflags: omp libint fftw3 libxc parallel scalapack mpi_f08 cosma ace de
 CP2K|            epmd xsmm plumed2 spglib libdftd4 dftd4_v3 mctc-lib tblite lib
 CP2K|            bvori libbqb libtorch mimic hdf5 trexio libsmeagol greenx
 CP2K| is freely available from                            https://www.cp2k.org/
 CP2K| Program compiled at                                   2026-05-02 15:35:30
 CP2K| Program compiled on                                         phy-cerberus4
 CP2K| Program compiled for                                               x86_64
 CP2K| Data directory path           /local/data/public/crm98/original_cp2k/data
 CP2K| Input file name                                                   run.inp

 GLOBAL| Force Environment number                                              1
 GLOBAL| Basis set file name                                           BASIS_SET
 GLOBAL| Potential file name                                           POTENTIAL
 GLOBAL| MM Potential file name                                     MM_POTENTIAL
 GLOBAL| Coordinate file name                                      __STD_INPUT__
 GLOBAL| Method name                                                        CP2K
 GLOBAL| Project name                                              H2O-64_NNP_MD
 GLOBAL| Run type                                                             MD
 GLOBAL| FFT library                                                       FFTW3
 GLOBAL| Diagonalization library                                       ScaLAPACK
 GLOBAL| Cholesky decomposition library                                ScaLAPACK
 GLOBAL| DGEMM library                                                      BLAS
 GLOBAL| Orthonormality check for eigenvectors                          DISABLED
 GLOBAL| Matrix multiplication library                                     COSMA
 GLOBAL| All-to-all communication in single precision                          F
 GLOBAL| FFTs using library dependent lengths                                  F
 GLOBAL| Grid backend                                                       AUTO
 GLOBAL| Global print level                                                  LOW
 GLOBAL| MPI I/O enabled                                                       T
 GLOBAL| Total number of message passing processes                            36
 GLOBAL| Number of distributed systems (nodes)                                 1
 GLOBAL| Number of threads for this process                                    1
 GLOBAL| This output is from process                                           0
 GLOBAL| OpenMP stack size per thread (OMP_STACKSIZE)                    default
 GLOBAL| CPU model name                              Intel(R) Xeon(R) Gold 5418Y
 GLOBAL| CPUID                                                              1003

 MEMORY| system memory details [Kb]
 MEMORY|                        rank 0           min           max       average
 MEMORY| MemTotal            263594404     263594404     263594404     263594404
 MEMORY| MemFree              47074452      47074452      47074452      47074452
 MEMORY| Buffers               2797556       2797556       2797556       2797556
 MEMORY| Cached              196264496     196264496     196264496     196264496
 MEMORY| Slab                  9215432       9215432       9215432       9215432
 MEMORY| SReclaimable          7586428       7586428       7586428       7586428
 MEMORY| MemLikelyFree       253722932     253722932     253722932     253722932


 GENERATE|  Preliminary Number of Bonds generated:                             0
 GENERATE|  Achieved consistency in connectivity generation.
 
 NNP| Neural Network Potential Force Environment
 NNP| Reading NNP input from file: NNP/bulkH2O-jcp2020-cnnp/nnp-1/input.nn
 NNP| Activation functions:  1  1  3
 NNP| short range atomic symmetry functions element H :
 NNP|   1 H   2 H             0.001  0.000 12.000
 NNP|   2 H   2 O             0.001  0.000 12.000
 NNP|   3 H   2 H             0.010  0.000 12.000
 NNP|   4 H   2 O             0.010  0.000 12.000
 NNP|   5 H   2 H             0.030  0.000 12.000
 NNP|   6 H   2 O             0.030  0.000 12.000
 NNP|   7 H   2 H             0.060  0.000 12.000
 NNP|   8 H   2 O             0.060  0.000 12.000
 NNP|   9 H   2 O             0.150  0.900 12.000
 NNP|  10 H   2 H             0.150  1.900 12.000
 NNP|  11 H   2 O             0.300  0.900 12.000
 NNP|  12 H   2 H             0.300  1.900 12.000
 NNP|  13 H   2 O             0.600  0.900 12.000
 NNP|  14 H   2 H             0.600  1.900 12.000
 NNP|  15 H   2 O             1.500  0.900 12.000
 NNP|  16 H   2 H             1.500  1.900 12.000
 NNP|   1 H   3 O  O   0.001 -1.000  4.000 12.000
 NNP|   2 H   3 O  O   0.001  1.000  4.000 12.000
 NNP|   3 H   3 H  O   0.010 -1.000  4.000 12.000
 NNP|   4 H   3 H  O   0.010  1.000  4.000 12.000
 NNP|   5 H   3 H  O   0.030 -1.000  1.000 12.000
 NNP|   6 H   3 O  O   0.030 -1.000  1.000 12.000
 NNP|   7 H   3 H  O   0.030  1.000  1.000 12.000
 NNP|   8 H   3 O  O   0.030  1.000  1.000 12.000
 NNP|   9 H   3 H  O   0.070 -1.000  1.000 12.000
 NNP|  10 H   3 H  O   0.070  1.000  1.000 12.000
 NNP|  11 H   3 H  O   0.200  1.000  1.000 12.000
 NNP| short range atomic symmetry functions element O :
 NNP|   1 O   2 H             0.001  0.000 12.000
 NNP|   2 O   2 O             0.001  0.000 12.000
 NNP|   3 O   2 H             0.010  0.000 12.000
 NNP|   4 O   2 O             0.010  0.000 12.000
 NNP|   5 O   2 H             0.030  0.000 12.000
 NNP|   6 O   2 O             0.030  0.000 12.000
 NNP|   7 O   2 H             0.060  0.000 12.000
 NNP|   8 O   2 O             0.060  0.000 12.000
 NNP|   9 O   2 H             0.150  0.900 12.000
 NNP|  10 O   2 O             0.150  4.000 12.000
 NNP|  11 O   2 H             0.300  0.900 12.000
 NNP|  12 O   2 O             0.300  4.000 12.000
 NNP|  13 O   2 H             0.600  0.900 12.000
 NNP|  14 O   2 O             0.600  4.000 12.000
 NNP|  15 O   2 H             1.500  0.900 12.000
 NNP|  16 O   2 O             1.500  4.000 12.000
 NNP|   1 O   3 H  O   0.001 -1.000  4.000 12.000
 NNP|   2 O   3 O  O   0.001 -1.000  4.000 12.000
 NNP|   3 O   3 H  O   0.001  1.000  4.000 12.000
 NNP|   4 O   3 O  O   0.001  1.000  4.000 12.000
 NNP|   5 O   3 H  H   0.010 -1.000  4.000 12.000
 NNP|   6 O   3 H  H   0.010  1.000  4.000 12.000
 NNP|   7 O   3 H  H   0.030 -1.000  1.000 12.000
 NNP|   8 O   3 H  O   0.030 -1.000  1.000 12.000
 NNP|   9 O   3 O  O   0.030 -1.000  1.000 12.000
 NNP|  10 O   3 H  H   0.030  1.000  1.000 12.000
 NNP|  11 O   3 H  O   0.030  1.000  1.000 12.000
 NNP|  12 O   3 O  O   0.030  1.000  1.000 12.000
 NNP|  13 O   3 H  H   0.070 -1.000  1.000 12.000
 NNP|  14 O   3 H  H   0.070  1.000  1.000 12.000
 NNP| Neural network specification for element H :
 NNP|  27 nodes in layer  1
 NNP|  20 nodes in layer  2
 NNP|  20 nodes in layer  3
 NNP|   1 nodes in layer  4
 NNP| Neural network specification for element O :
 NNP|  30 nodes in layer  1
 NNP|  20 nodes in layer  2
 NNP|  20 nodes in layer  3
 NNP|   1 nodes in layer  4
 NNP| Reading scaling information from file: NNP/bulkH2O-jcp2020-cnnp/nnp-1/input.nn
 NNP| Initializing weights for model:            1
 NNP| Reading weights from file: NNP/bulkH2O-jcp2020-cnnp/nnp-1/weights.001.data
 NNP| Reading weights from file: NNP/bulkH2O-jcp2020-cnnp/nnp-1/weights.008.data
 NNP| NNP force environment initialized

 MD_PAR| Molecular dynamics protocol (MD input parameters)
 MD_PAR| Ensemble type                                                       NVT
 MD_PAR| Number of time steps                                                100
 MD_PAR| Time step [fs]                                                 0.500000
 MD_PAR| Temperature [K]                                              300.000000
 MD_PAR| Temperature tolerance [K]                                      0.000000
 MD_PAR| Print MD information every                                    1 step(s)
 MD_PAR| File type   Print frequency [steps]                          File names
 MD_PAR| Coordinates          1                          H2O-64_NNP_MD-pos-1.xyz
 MD_PAR| Velocities           1                          H2O-64_NNP_MD-vel-1.xyz
 MD_PAR| Energies             1                             H2O-64_NNP_MD-1.ener
 MD_PAR| Dump                20                          H2O-64_NNP_MD-1.restart

 ROT| Rotational analysis information
 ROT| Principal axes and moments of inertia [a.u.]
 ROT|                           1                   2                   3
 ROT| Eigenvalues      2.51836669954E+11   2.65917082058E+11   2.73849094965E+11
 ROT|      x              0.926985305794      0.086790597640      0.364918669024
 ROT|      y             -0.318278247060      0.696798663376      0.642783462891
 ROT|      z             -0.198487279920     -0.711996499204      0.673545681325
 ROT| Number of rotovibrational vectors                                        6

 DOF| Calculation of degrees of freedom
 DOF| Number of atoms                                                      12288
 DOF| Number of intramolecular constraints                                     0
 DOF| Number of intermolecular constraints                                     0
 DOF| Invariants (translations + rotations)                                    3
 DOF| Degrees of freedom                                                   36861

 DOF| Restraints information
 DOF| Number of intramolecular restraints                                      0
 DOF| Number of intermolecular restraints                                      0

 THERMOSTAT| Thermostat information for PARTICLES
 THERMOSTAT| Type of thermostat            Canonical Sampling/Velocity Rescaling
 THERMOSTAT| CSVR time constant [fs]                                   30.000000
 THERMOSTAT| Initial kinetic energy                           0.000000000000E+00
 THERMOSTAT| End of thermostat information for PARTICLES

 MD_VEL| Velocities initialization
 MD_VEL| Initial temperature [K]                                      300.000000
 MD_VEL| COM velocity             0.0000000000     0.0000000000     0.0000000000

 ENERGY| Total FORCE_EVAL ( NNP ) energy [hartree]        240114.346473270416027

 MD_INI| MD initialization
 MD_INI| Potential energy [hartree]                           0.240114346473E+06
 MD_INI| Kinetic energy [hartree]                             0.175097970553E+02
 MD_INI| Temperature [K]                                              300.000000
 MD_INI| Cell volume [bohr^3]                                 8.274492531766E+05
 MD_INI| Cell volume [ang^3]                                  1.226153272320E+05
 MD_INI| Cell lengths [bohr]      9.38815943E+01  9.38815943E+01  9.38815943E+01
 MD_INI| Cell lengths [ang]       4.96800000E+01  4.96800000E+01  4.96800000E+01
 MD_INI| Cell angles [deg]        9.00000000E+01  9.00000000E+01  9.00000000E+01

 ENERGY| Total FORCE_EVAL ( NNP ) energy [hartree]        240112.346370736690005

 MD| ***************************************************************************
 MD| Step number                                                               1
 MD| Time [fs]                                                          0.500000
 MD| Conserved quantity [hartree]                             0.240130948755E+06
 MD| ---------------------------------------------------------------------------
 MD|                                          Instantaneous             Averages
 MD| CPU time per MD step [s]                      0.600476             0.600476
 MD| Energy drift per atom [K]          -0.233211649366E+02   0.000000000000E+00
 MD| Potential energy [hartree]          0.240112346371E+06   0.240112346371E+06
 MD| Kinetic energy [hartree]            0.185703179582E+02   0.185703179582E+02
 MD| Temperature [K]                             318.170186           318.170186
 MD| ***************************************************************************
 MD| Estimated peak process memory after this step [MiB]                     301

 ENERGY| Total FORCE_EVAL ( NNP ) energy [hartree]        240109.817853486019885

 MD| ***************************************************************************
 MD| Step number                                                               2
 MD| Time [fs]                                                          1.000000
 MD| Conserved quantity [hartree]                             0.240130969380E+06
 MD| ---------------------------------------------------------------------------
 MD|                                          Instantaneous             Averages
 MD| CPU time per MD step [s]                      0.314181             0.457329
 MD| Energy drift per atom [K]          -0.227911457414E+02  -0.113955728707E+02
 MD| Potential energy [hartree]          0.240109817853E+06   0.240111082112E+06
 MD| Kinetic energy [hartree]            0.211089912223E+02   0.198396545903E+02
 MD| Temperature [K]                             361.665949           339.918067
 MD| ***************************************************************************
 MD| Estimated peak process memory after this step [MiB]                     301

 ENERGY| Total FORCE_EVAL ( NNP ) energy [hartree]        240108.256408125831513

 MD| ***************************************************************************
 MD| Step number                                                               3
 MD| Time [fs]                                                          1.500000
 MD| Conserved quantity [hartree]                             0.240131543511E+06
 MD| ---------------------------------------------------------------------------
 MD|                                          Instantaneous             Averages
 MD| CPU time per MD step [s]                      0.311161             0.408606
 MD| Energy drift per atom [K]          -0.803722106733E+01  -0.102761222696E+02
 MD| Potential energy [hartree]          0.240108256408E+06   0.240110140211E+06
 MD| Kinetic energy [hartree]            0.231698670234E+02   0.209497254013E+02
 MD| Temperature [K]                             396.975481           358.937205
 MD| ***************************************************************************
 MD| Estimated peak process memory after this step [MiB]                     301

 ENERGY| Total FORCE_EVAL ( NNP ) energy [hartree]        240108.540213641506853

 MD| ***************************************************************************
 MD| Step number                                                               4
 MD| Time [fs]                                                          2.000000
 MD| Conserved quantity [hartree]                             0.240131871159E+06
 MD| ---------------------------------------------------------------------------
 MD|                                          Instantaneous             Averages
 MD| CPU time per MD step [s]                      0.298746             0.381141
 MD| Energy drift per atom [K]           0.382611826674E+00  -0.761143874551E+01
 MD| Potential energy [hartree]          0.240108540214E+06   0.240109740211E+06
 MD| Kinetic energy [hartree]            0.231194264040E+02   0.214921506520E+02
 MD| Temperature [K]                             396.111268           368.230721
 MD| ***************************************************************************
 MD| Estimated peak process memory after this step [MiB]                     301

 ENERGY| Total FORCE_EVAL ( NNP ) energy [hartree]        240110.918466834787978

 MD| ***************************************************************************
 MD| Step number                                                               5
 MD| Time [fs]                                                          2.500000
 MD| Conserved quantity [hartree]                             0.240134430732E+06
 MD| ---------------------------------------------------------------------------
 MD|                                          Instantaneous             Averages
 MD| CPU time per MD step [s]                      0.297836             0.364480
 MD| Energy drift per atom [K]           0.661580163948E+02   0.714245228255E+01
 MD| Potential energy [hartree]          0.240110918467E+06   0.240109975863E+06
 MD| Kinetic energy [hartree]            0.232467858757E+02   0.218430776967E+02
 MD| Temperature [K]                             398.293352           374.243247
 MD| ***************************************************************************
 MD| Estimated peak process memory after this step [MiB]                     301

 ENERGY| Total FORCE_EVAL ( NNP ) energy [hartree]        240107.272458032879513

 MD| ***************************************************************************
 MD| Step number                                                               6
 MD| Time [fs]                                                          3.000000
 MD| Conserved quantity [hartree]                             0.240134287301E+06
 MD| ---------------------------------------------------------------------------
 MD|                                          Instantaneous             Averages
 MD| CPU time per MD step [s]                      0.352551             0.362492
 MD| Energy drift per atom [K]           0.624721538234E+02   0.163640692060E+02
 MD| Potential energy [hartree]          0.240107272458E+06   0.240109525295E+06
 MD| Kinetic energy [hartree]            0.266086432852E+02   0.226373386281E+02
 MD| Temperature [K]                             455.892947           387.851531
 MD| ***************************************************************************
 MD| Estimated peak process memory after this step [MiB]                     301

 ENERGY| Total FORCE_EVAL ( NNP ) energy [hartree]        240101.368616338237189

 MD| ***************************************************************************
 MD| Step number                                                               7
 MD| Time [fs]                                                          3.500000
 MD| Conserved quantity [hartree]                             0.240133114596E+06
 MD| ---------------------------------------------------------------------------
 MD|                                          Instantaneous             Averages
 MD| CPU time per MD step [s]                      0.318477             0.356204
 MD| Energy drift per atom [K]           0.323362110949E+02   0.186458037616E+02
 MD| Potential energy [hartree]          0.240101368616E+06   0.240108360055E+06
 MD| Kinetic energy [hartree]            0.311229626508E+02   0.238495706314E+02
 MD| Temperature [K]                             533.237979           408.621023
 MD| ***************************************************************************
 MD| Estimated peak process memory after this step [MiB]                     301

 ENERGY| Total FORCE_EVAL ( NNP ) energy [hartree]        240097.292836133419769

 MD| ***************************************************************************
 MD| Step number                                                               8
 MD| Time [fs]                                                          4.000000
 MD| Conserved quantity [hartree]                             0.240132011949E+06
 MD| ---------------------------------------------------------------------------
 MD|                                          Instantaneous             Averages
 MD| CPU time per MD step [s]                      0.303726             0.349644
 MD| Energy drift per atom [K]           0.400061300730E+01   0.168151549173E+02
 MD| Potential energy [hartree]          0.240097292836E+06   0.240106976653E+06
 MD| Kinetic energy [hartree]            0.338666835679E+02   0.251017097484E+02
 MD| Temperature [K]                             580.246878           430.074255
 MD| ***************************************************************************
 MD| Estimated peak process memory after this step [MiB]                     301

 ENERGY| Total FORCE_EVAL ( NNP ) energy [hartree]        240096.588508934335550

 MD| ***************************************************************************
 MD| Step number                                                               9
 MD| Time [fs]                                                          4.500000
 MD| Conserved quantity [hartree]                             0.240133111103E+06
 MD| ---------------------------------------------------------------------------
 MD|                                          Instantaneous             Averages
 MD| CPU time per MD step [s]                      0.305807             0.344773
 MD| Energy drift per atom [K]           0.322464575984E+02   0.185297441041E+02
 MD| Potential energy [hartree]          0.240096588509E+06   0.240105822415E+06
 MD| Kinetic energy [hartree]            0.353548773430E+02   0.262409505923E+02
 MD| Temperature [K]                             605.744497           449.593171
 MD| ***************************************************************************
 MD| Estimated peak process memory after this step [MiB]                     301

 ENERGY| Total FORCE_EVAL ( NNP ) energy [hartree]        240095.868560335540678

 MD| ***************************************************************************
 MD| Step number                                                              10
 MD| Time [fs]                                                          5.000000
 MD| Conserved quantity [hartree]                             0.240134364320E+06
 MD| ---------------------------------------------------------------------------
 MD|                                          Instantaneous             Averages
 MD| CPU time per MD step [s]                      0.301554             0.340452
 MD| Energy drift per atom [K]           0.644513801334E+02   0.231219077070E+02
 MD| Potential energy [hartree]          0.240095868560E+06   0.240104827029E+06
 MD| Kinetic energy [hartree]            0.370503334803E+02   0.273218888811E+02
 MD| Temperature [K]                             634.793197           468.113173
 MD| ***************************************************************************
 MD| Estimated peak process memory after this step [MiB]                     301

 ENERGY| Total FORCE_EVAL ( NNP ) energy [hartree]        240099.193747315352084

 MD| ***************************************************************************
 MD| Step number                                                              11
 MD| Time [fs]                                                          5.500000
 MD| Conserved quantity [hartree]                             0.240140125234E+06
 MD| ---------------------------------------------------------------------------
 MD|                                          Instantaneous             Averages
 MD| CPU time per MD step [s]                      0.296500             0.336456
 MD| Energy drift per atom [K]           0.212494216879E+03   0.403375721772E+02
 MD| Potential energy [hartree]          0.240099193747E+06   0.240104314913E+06
 MD| Kinetic energy [hartree]            0.391172082178E+02   0.283941906390E+02
 MD| Temperature [K]                             670.205510           486.485204
 MD| ***************************************************************************
 MD| Estimated peak process memory after this step [MiB]                     301

 ENERGY| Total FORCE_EVAL ( NNP ) energy [hartree]        240092.856648745655548

 MD| ***************************************************************************
 MD| Step number                                                              12
 MD| Time [fs]                                                          6.000000
 MD| Conserved quantity [hartree]                             0.240142769222E+06
 MD| ---------------------------------------------------------------------------
 MD|                                          Instantaneous             Averages
 MD| CPU time per MD step [s]                      0.295475             0.333041
 MD| Energy drift per atom [K]           0.280438918162E+03   0.603460176759E+02
 MD| Potential energy [hartree]          0.240092856649E+06   0.240103360057E+06
 MD| Kinetic energy [hartree]            0.476451199070E+02   0.299984347446E+02
 MD| Temperature [K]                             816.316484           513.971144
 MD| ***************************************************************************
 MD| Estimated peak process memory after this step [MiB]                     301

 ENERGY| Total FORCE_EVAL ( NNP ) energy [hartree]        240100.111470598465530

 MD| ***************************************************************************
 MD| Step number                                                              13
 MD| Time [fs]                                                          6.500000
 MD| Conserved quantity [hartree]                             0.240170409846E+06
 MD| ---------------------------------------------------------------------------
 MD|                                          Instantaneous             Averages
 MD| CPU time per MD step [s]                      0.321053             0.332119
 MD| Energy drift per atom [K]           0.990742331336E+03   0.131914964881E+03
 MD| Potential energy [hartree]          0.240100111471E+06   0.240103110166E+06
 MD| Kinetic energy [hartree]            0.673120489436E+02   0.328687127599E+02
 MD| Temperature [K]                            1153.275199           563.148379
 MD| ***************************************************************************
 MD| Estimated peak process memory after this step [MiB]                     301

 ENERGY| Total FORCE_EVAL ( NNP ) energy [hartree]        240094.600133153056959

 MD| ***************************************************************************
 MD| Step number                                                              14
 MD| Time [fs]                                                          7.000000
 MD| Conserved quantity [hartree]                             0.240174434785E+06
 MD| ---------------------------------------------------------------------------
 MD|                                          Instantaneous             Averages
 MD| CPU time per MD step [s]                      0.307850             0.330385
 MD| Energy drift per atom [K]           0.109417444658E+04   0.200647785002E+03
 MD| Potential energy [hartree]          0.240094600133E+06   0.240102502307E+06
 MD| Kinetic energy [hartree]            0.759611367645E+02   0.359467430460E+02
 MD| Temperature [K]                            1301.462316           615.885089
 MD| ***************************************************************************
 MD| Estimated peak process memory after this step [MiB]                     301

 ENERGY| Total FORCE_EVAL ( NNP ) energy [hartree]        240089.269585861969972

 MD| ***************************************************************************
 MD| Step number                                                              15
 MD| Time [fs]                                                          7.500000
 MD| Conserved quantity [hartree]                             0.240181347687E+06
 MD| ---------------------------------------------------------------------------
 MD|                                          Instantaneous             Averages
 MD| CPU time per MD step [s]                      0.308884             0.328952
 MD| Energy drift per atom [K]           0.127182086673E+04   0.272059323784E+03
 MD| Potential energy [hartree]          0.240089269586E+06   0.240101620125E+06
 MD| Kinetic energy [hartree]            0.871609079335E+02   0.393610207052E+02
 MD| Temperature [K]                            1493.350968           674.382814
 MD| ***************************************************************************
 MD| Estimated peak process memory after this step [MiB]                     301

 ENERGY| Total FORCE_EVAL ( NNP ) energy [hartree]        240089.557299026608234

 MD| ***************************************************************************
 MD| Step number                                                              16
 MD| Time [fs]                                                          8.000000
 MD| Conserved quantity [hartree]                             0.240243124873E+06
 MD| ---------------------------------------------------------------------------
 MD|                                          Instantaneous             Averages
 MD| CPU time per MD step [s]                      0.297838             0.327007
 MD| Energy drift per atom [K]           0.285935903762E+04   0.433765555899E+03
 MD| Potential energy [hartree]          0.240089557299E+06   0.240100866199E+06
 MD| Kinetic energy [hartree]            0.147023946857E+03   0.460899535897E+02
 MD| Temperature [K]                            2519.000301           789.671407
 MD| ***************************************************************************
 MD| Estimated peak process memory after this step [MiB]                     301

 ENERGY| Total FORCE_EVAL ( NNP ) energy [hartree]        240070.439245761779603

 MD| ***************************************************************************
 MD| Step number                                                              17
 MD| Time [fs]                                                          8.500000
 MD| Conserved quantity [hartree]                             0.240250640235E+06
 MD| ---------------------------------------------------------------------------
 MD|                                          Instantaneous             Averages
 MD| CPU time per MD step [s]                      0.327876             0.327058
 MD| Energy drift per atom [K]           0.305248734665E+04   0.587808014178E+03
 MD| Potential energy [hartree]          0.240070439246E+06   0.240099076378E+06
 MD| Kinetic energy [hartree]            0.171274050501E+03   0.534537239962E+02
 MD| Temperature [K]                            2934.483763           915.836840
 MD| ***************************************************************************
 MD| Estimated peak process memory after this step [MiB]                     301

 ENERGY| Total FORCE_EVAL ( NNP ) energy [hartree]        240089.864406240289100

 MD| ***************************************************************************
 MD| Step number                                                              18
 MD| Time [fs]                                                          9.000000
 MD| Conserved quantity [hartree]                             0.240346096542E+06
 MD| ---------------------------------------------------------------------------
 MD|                                          Instantaneous             Averages
 MD| CPU time per MD step [s]                      0.316364             0.326464
 MD| Energy drift per atom [K]           0.550550507363E+04   0.861013406370E+03
 MD| Potential energy [hartree]          0.240089864406E+06   0.240098564602E+06
 MD| Kinetic energy [hartree]            0.244026433491E+03   0.640410967459E+02
 MD| Temperature [K]                            4180.969649          1097.233107
 MD| ***************************************************************************
 MD| Estimated peak process memory after this step [MiB]                     301

 ENERGY| Total FORCE_EVAL ( NNP ) energy [hartree]        240081.980320972681511

 MD| ***************************************************************************
 MD| Step number                                                              19
 MD| Time [fs]                                                          9.500000
 MD| Conserved quantity [hartree]                             0.240368683810E+06
 MD| ---------------------------------------------------------------------------
 MD|                                          Instantaneous             Averages
 MD| CPU time per MD step [s]                      0.322604             0.326261
 MD| Energy drift per atom [K]           0.608594830725E+04   0.113600998010E+04
 MD| Potential energy [hartree]          0.240081980321E+06   0.240097691745E+06
 MD| Kinetic energy [hartree]            0.270624005543E+03   0.749138814194E+02
 MD| Temperature [K]                            4636.672910          1283.519412
 MD| ***************************************************************************
 MD| Estimated peak process memory after this step [MiB]                     301

 ENERGY| Total FORCE_EVAL ( NNP ) energy [hartree]        240102.088055756001268

 MD| ***************************************************************************
 MD| Step number                                                              20
 MD| Time [fs]                                                         10.000000
 MD| Conserved quantity [hartree]                             0.240430066045E+06
 MD| ---------------------------------------------------------------------------
 MD|                                          Instantaneous             Averages
 MD| CPU time per MD step [s]                      0.350775             0.327487
 MD| Energy drift per atom [K]           0.766333713073E+04   0.146237633763E+04
 MD| Potential energy [hartree]          0.240102088056E+06   0.240097911560E+06
 MD| Kinetic energy [hartree]            0.307360646245E+03   0.865362196607E+02
 MD| Temperature [K]                            5266.091525          1482.648018
 MD| ***************************************************************************
 MD| Estimated peak process memory after this step [MiB]                     301

 ENERGY| Total FORCE_EVAL ( NNP ) energy [hartree]        240099.261423861433286

 MD| ***************************************************************************
 MD| Step number                                                              21
 MD| Time [fs]                                                         10.500000
 MD| Conserved quantity [hartree]                             0.240462903755E+06
 MD| ---------------------------------------------------------------------------
 MD|                                          Instantaneous             Averages
 MD| CPU time per MD step [s]                      0.447879             0.333220
 MD| Energy drift per atom [K]           0.850719423838E+04   0.179784385672E+04
 MD| Potential energy [hartree]          0.240099261424E+06   0.240097975840E+06
 MD| Kinetic energy [hartree]            0.337923687058E+03   0.985070514415E+02
 MD| Temperature [K]                            5789.736214          1687.747456
 MD| ***************************************************************************
 MD| Estimated peak process memory after this step [MiB]                     311

 ENERGY| Total FORCE_EVAL ( NNP ) energy [hartree]        240080.736440314911306

 MD| ***************************************************************************
 MD| Step number                                                              22
 MD| Time [fs]                                                         11.000000
 MD| Conserved quantity [hartree]                             0.240513329430E+06
 MD| ---------------------------------------------------------------------------
 MD|                                          Instantaneous             Averages
 MD| CPU time per MD step [s]                      0.306748             0.332016
 MD| Energy drift per atom [K]           0.980302350527E+04   0.216171565892E+04
 MD| Potential energy [hartree]          0.240080736440E+06   0.240097192230E+06
 MD| Kinetic energy [hartree]            0.401071942621E+03   0.112260001041E+03
 MD| Temperature [K]                            6871.672036          1923.380391
 MD| ***************************************************************************
 MD| Estimated peak process memory after this step [MiB]                     311

 ENERGY| Total FORCE_EVAL ( NNP ) energy [hartree]        240090.062175571685657

 MD| ***************************************************************************
 MD| Step number                                                              23
 MD| Time [fs]                                                         11.500000
 MD| Conserved quantity [hartree]                             0.240616456130E+06
 MD| ---------------------------------------------------------------------------
 MD|                                          Instantaneous             Averages
 MD| CPU time per MD step [s]                      0.295925             0.330447
 MD| Energy drift per atom [K]           0.124531534916E+05   0.260916947773E+04
 MD| Potential energy [hartree]          0.240090062176E+06   0.240096882228E+06
 MD| Kinetic energy [hartree]            0.487857751340E+03   0.128590338010E+03
 MD| Temperature [K]                            8358.596330          2203.172389
 MD| ***************************************************************************
 MD| Estimated peak process memory after this step [MiB]                     311

 ENERGY| Total FORCE_EVAL ( NNP ) energy [hartree]        240087.957938648440177

 MD| ***************************************************************************
 MD| Step number                                                              24
 MD| Time [fs]                                                         12.000000
 MD| Conserved quantity [hartree]                             0.240670454364E+06
 MD| ---------------------------------------------------------------------------
 MD|                                          Instantaneous             Averages
 MD| CPU time per MD step [s]                      0.295959             0.329010
 MD| Energy drift per atom [K]           0.138407896619E+05   0.307715365207E+04
 MD| Potential energy [hartree]          0.240087957939E+06   0.240096510383E+06
 MD| Kinetic energy [hartree]            0.535841830501E+03   0.145559150197E+03
 MD| Temperature [K]                            9180.720293          2493.903551
 MD| ***************************************************************************
 MD| Estimated peak process memory after this step [MiB]                     311

 ENERGY| Total FORCE_EVAL ( NNP ) energy [hartree]        240080.566322865808615

 MD| ***************************************************************************
 MD| Step number                                                              25
 MD| Time [fs]                                                         12.500000
 MD| Conserved quantity [hartree]                             0.240713460015E+06
 MD| ---------------------------------------------------------------------------
 MD|                                          Instantaneous             Averages
 MD| CPU time per MD step [s]                      0.362195             0.330338
 MD| Energy drift per atom [K]           0.149459405575E+05   0.355190512829E+04
 MD| Potential energy [hartree]          0.240080566323E+06   0.240095872620E+06
 MD| Kinetic energy [hartree]            0.577357293395E+03   0.162831075925E+03
 MD| Temperature [K]                            9892.015737          2789.828039
 MD| ***************************************************************************
 MD| Estimated peak process memory after this step [MiB]                     311

 ENERGY| Total FORCE_EVAL ( NNP ) energy [hartree]        240070.938278124376666

 MD| ***************************************************************************
 MD| Step number                                                              26
 MD| Time [fs]                                                         13.000000
 MD| Conserved quantity [hartree]                             0.240835263965E+06
 MD| ---------------------------------------------------------------------------
 MD|                                          Instantaneous             Averages
 MD| CPU time per MD step [s]                      0.300204             0.329179
 MD| Energy drift per atom [K]           0.180760349261E+05   0.411052550513E+04
 MD| Potential energy [hartree]          0.240070938278E+06   0.240094913607E+06
 MD| Kinetic energy [hartree]            0.698570957415E+03   0.183436455982E+03
 MD| Temperature [K]                           11968.801612          3142.865484
 MD| ***************************************************************************
 MD| Estimated peak process memory after this step [MiB]                     311

 ENERGY| Total FORCE_EVAL ( NNP ) energy [hartree]        240080.553512326674536

 MD| ***************************************************************************
 MD| Step number                                                              27
 MD| Time [fs]                                                         13.500000
 MD| Conserved quantity [hartree]                             0.240978564136E+06
 MD| ---------------------------------------------------------------------------
 MD|                                          Instantaneous             Averages
 MD| CPU time per MD step [s]                      0.320304             0.328850
 MD| Energy drift per atom [K]           0.217585350158E+05   0.476415548701E+04
 MD| Potential energy [hartree]          0.240080553512E+06   0.240094381752E+06
 MD| Kinetic energy [hartree]            0.819786419037E+03   0.207004973133E+03
 MD| Temperature [K]                           14045.618286          3546.671143
 MD| ***************************************************************************
 MD| Estimated peak process memory after this step [MiB]                     311

 ENERGY| Total FORCE_EVAL ( NNP ) energy [hartree]        240083.637312346283579

 MD| ***************************************************************************
 MD| Step number                                                              28
 MD| Time [fs]                                                         14.000000
 MD| Conserved quantity [hartree]                             0.240989567809E+06
 MD| ---------------------------------------------------------------------------
 MD|                                          Instantaneous             Averages
 MD| CPU time per MD step [s]                      0.338417             0.329192
 MD| Energy drift per atom [K]           0.220413052550E+05   0.538119655015E+04
 MD| Potential energy [hartree]          0.240083637312E+06   0.240093998022E+06
 MD| Kinetic energy [hartree]            0.814552401746E+03   0.228703095583E+03
 MD| Temperature [K]                           13955.942479          3918.430834
 MD| ***************************************************************************
 MD| Estimated peak process memory after this step [MiB]                     311

 ENERGY| Total FORCE_EVAL ( NNP ) energy [hartree]        240077.359371542203007

 MD| ***************************************************************************
 MD| Step number                                                              29
 MD| Time [fs]                                                         14.500000
 MD| Conserved quantity [hartree]                             0.240990662683E+06
 MD| ---------------------------------------------------------------------------
 MD|                                          Instantaneous             Averages
 MD| CPU time per MD step [s]                      0.390046             0.331290
 MD| Energy drift per atom [K]           0.220694411374E+05   0.595665326006E+04
 MD| Potential energy [hartree]          0.240077359372E+06   0.240093424275E+06
 MD| Kinetic energy [hartree]            0.808820331845E+03   0.248707138213E+03
 MD| Temperature [K]                           13857.733404          4261.165405
 MD| ***************************************************************************
 MD| Estimated peak process memory after this step [MiB]                     311

 ENERGY| Total FORCE_EVAL ( NNP ) energy [hartree]        240074.040014764614170

 MD| ***************************************************************************
 MD| Step number                                                              30
 MD| Time [fs]                                                         15.000000
 MD| Conserved quantity [hartree]                             0.241017724026E+06
 MD| ---------------------------------------------------------------------------
 MD|                                          Instantaneous             Averages
 MD| CPU time per MD step [s]                      0.351027             0.331948
 MD| Energy drift per atom [K]           0.227648582827E+05   0.651692676081E+04
 MD| Potential energy [hartree]          0.240074040015E+06   0.240092778133E+06
 MD| Kinetic energy [hartree]            0.825893413430E+03   0.267946680720E+03
 MD| Temperature [K]                           14150.251042          4590.801593
 MD| ***************************************************************************
 MD| Estimated peak process memory after this step [MiB]                     311

 ENERGY| Total FORCE_EVAL ( NNP ) energy [hartree]        240070.531348530610558

 MD| ***************************************************************************
 MD| Step number                                                              31
 MD| Time [fs]                                                         15.500000
 MD| Conserved quantity [hartree]                             0.241050621802E+06
 MD| ---------------------------------------------------------------------------
 MD|                                          Instantaneous             Averages
 MD| CPU time per MD step [s]                      0.358945             0.332819
 MD| Energy drift per atom [K]           0.236102589760E+05   0.706832457420E+04
 MD| Potential energy [hartree]          0.240070531349E+06   0.240092060495E+06
 MD| Kinetic energy [hartree]            0.848650394202E+03   0.286679058574E+03
 MD| Temperature [K]                           14540.152433          4911.748394
 MD| ***************************************************************************
 MD| Estimated peak process memory after this step [MiB]                     311

 ENERGY| Total FORCE_EVAL ( NNP ) energy [hartree]        240053.171520903561031

 MD| ***************************************************************************
 MD| Step number                                                              32
 MD| Time [fs]                                                         16.000000
 MD| Conserved quantity [hartree]                             0.241127125838E+06
 MD| ---------------------------------------------------------------------------
 MD|                                          Instantaneous             Averages
 MD| CPU time per MD step [s]                      0.405511             0.335090
 MD| Energy drift per atom [K]           0.255762448984E+05   0.764669708433E+04
 MD| Potential energy [hartree]          0.240053171521E+06   0.240090845215E+06
 MD| Kinetic energy [hartree]            0.928112440258E+03   0.306723851752E+03
 MD| Temperature [K]                           15901.596757          5255.181156
 MD| ***************************************************************************
 MD| Estimated peak process memory after this step [MiB]                     311

 ENERGY| Total FORCE_EVAL ( NNP ) energy [hartree]        240049.551194466825109

 MD| ***************************************************************************
 MD| Step number                                                              33
 MD| Time [fs]                                                         16.500000
 MD| Conserved quantity [hartree]                             0.241217996447E+06
 MD| ---------------------------------------------------------------------------
 MD|                                          Instantaneous             Averages
 MD| CPU time per MD step [s]                      0.326652             0.334835
 MD| Energy drift per atom [K]           0.279114202352E+05   0.826077960406E+04
 MD| Potential energy [hartree]          0.240049551194E+06   0.240089593881E+06
 MD| Kinetic energy [hartree]            0.100682356544E+04   0.327938994591E+03
 MD| Temperature [K]                           17250.175355          5618.665828
 MD| ***************************************************************************
 MD| Estimated peak process memory after this step [MiB]                     311

 ENERGY| Total FORCE_EVAL ( NNP ) energy [hartree]        240061.336232062894851

 MD| ***************************************************************************
 MD| Step number                                                              34
 MD| Time [fs]                                                         17.000000
 MD| Conserved quantity [hartree]                             0.241300204112E+06
 MD| ---------------------------------------------------------------------------
 MD|                                          Instantaneous             Averages
 MD| CPU time per MD step [s]                      0.313895             0.334219
 MD| Energy drift per atom [K]           0.300239769064E+05   0.890087364236E+04
 MD| Potential energy [hartree]          0.240061336232E+06   0.240088762773E+06
 MD| Kinetic energy [hartree]            0.106042859871E+04   0.349482806477E+03
 MD| Temperature [K]                           18168.604617          5987.781675
 MD| ***************************************************************************
 MD| Estimated peak process memory after this step [MiB]                     311

 ENERGY| Total FORCE_EVAL ( NNP ) energy [hartree]        240063.235353415017016

 MD| ***************************************************************************
 MD| Step number                                                              35
 MD| Time [fs]                                                         17.500000
 MD| Conserved quantity [hartree]                             0.241339816147E+06
 MD| ---------------------------------------------------------------------------
 MD|                                          Instantaneous             Averages
 MD| CPU time per MD step [s]                      0.341442             0.334425
 MD| Energy drift per atom [K]           0.310419193289E+05   0.953347494769E+04
 MD| Potential energy [hartree]          0.240063235353E+06   0.240088033418E+06
 MD| Kinetic energy [hartree]            0.108053983043E+04   0.370370150019E+03
 MD| Temperature [K]                           18513.175687          6345.650075
 MD| ***************************************************************************
 MD| Estimated peak process memory after this step [MiB]                     311

 ENERGY| Total FORCE_EVAL ( NNP ) energy [hartree]        240045.391828195512062

 MD| ***************************************************************************
 MD| Step number                                                              36
 MD| Time [fs]                                                         18.000000
 MD| Conserved quantity [hartree]                             0.241377693795E+06
 MD| ---------------------------------------------------------------------------
 MD|                                          Instantaneous             Averages
 MD| CPU time per MD step [s]                      0.309440             0.333731
 MD| Energy drift per atom [K]           0.320152918028E+05   0.101579698603E+05
 MD| Potential energy [hartree]          0.240045391828E+06   0.240086848930E+06
 MD| Kinetic energy [hartree]            0.111820254531E+04   0.391143272110E+03
 MD| Temperature [K]                           19158.460977          6701.561489
 MD| ***************************************************************************
 MD| Estimated peak process memory after this step [MiB]                     311

 ENERGY| Total FORCE_EVAL ( NNP ) energy [hartree]        240041.181104908901034

 MD| ***************************************************************************
 MD| Step number                                                              37
 MD| Time [fs]                                                         18.500000
 MD| Conserved quantity [hartree]                             0.241465916055E+06
 MD| ---------------------------------------------------------------------------
 MD|                                          Instantaneous             Averages
 MD| CPU time per MD step [s]                      0.310589             0.333106
 MD| Energy drift per atom [K]           0.342824103853E+05   0.108099817664E+05
 MD| Potential energy [hartree]          0.240041181105E+06   0.240085614664E+06
 MD| Kinetic energy [hartree]            0.119123282864E+04   0.412767314178E+03
 MD| Temperature [K]                           20409.708203          7072.051941
 MD| ***************************************************************************
 MD| Estimated peak process memory after this step [MiB]                     311

 ENERGY| Total FORCE_EVAL ( NNP ) energy [hartree]        240019.832300998328719

 MD| ***************************************************************************
 MD| Step number                                                              38
 MD| Time [fs]                                                         19.000000
 MD| Conserved quantity [hartree]                             0.241487735607E+06
 MD| ---------------------------------------------------------------------------
 MD|                                          Instantaneous             Averages
 MD| CPU time per MD step [s]                      0.332986             0.333103
 MD| Energy drift per atom [K]           0.348431250029E+05   0.114424329042E+05
 MD| Potential energy [hartree]          0.240019832301E+06   0.240083883549E+06
 MD| Kinetic energy [hartree]            0.121432692660E+04   0.433860988189E+03
 MD| Temperature [K]                           20805.385512          7433.455456
 MD| ***************************************************************************
 MD| Estimated peak process memory after this step [MiB]                     311

 ENERGY| Total FORCE_EVAL ( NNP ) energy [hartree]        240017.948761105682934

 MD| ***************************************************************************
 MD| Step number                                                              39
 MD| Time [fs]                                                         19.500000
 MD| Conserved quantity [hartree]                             0.241560400322E+06
 MD| ---------------------------------------------------------------------------
 MD|                                          Instantaneous             Averages
 MD| CPU time per MD step [s]                      0.332310             0.333082
 MD| Energy drift per atom [K]           0.367104488001E+05   0.120903307477E+05
 MD| Potential energy [hartree]          0.240017948761E+06   0.240082192914E+06
 MD| Kinetic energy [hartree]            0.126838405475E+04   0.455259015537E+03
 MD| Temperature [K]                           21731.560636          7800.073538
 MD| ***************************************************************************
 MD| Estimated peak process memory after this step [MiB]                     311

 ENERGY| Total FORCE_EVAL ( NNP ) energy [hartree]        239984.088770527974702

 MD| ***************************************************************************
 MD| Step number                                                              40
 MD| Time [fs]                                                         20.000000
 MD| Conserved quantity [hartree]                             0.241617773590E+06
 MD| ---------------------------------------------------------------------------
 MD|                                          Instantaneous             Averages
 MD| CPU time per MD step [s]                      0.329673             0.332997
 MD| Energy drift per atom [K]           0.381848159560E+05   0.127426928779E+05
 MD| Potential energy [hartree]          0.239984088771E+06   0.240079740310E+06
 MD| Kinetic energy [hartree]            0.133823774380E+04   0.477333483744E+03
 MD| Temperature [K]                           22928.382429          8178.281260
 MD| ***************************************************************************
 MD| Estimated peak process memory after this step [MiB]                     311

 ENERGY| Total FORCE_EVAL ( NNP ) energy [hartree]        239997.255786622234154

 MD| ***************************************************************************
 MD| Step number                                                              41
 MD| Time [fs]                                                         20.500000
 MD| Conserved quantity [hartree]                             0.241742296669E+06
 MD| ---------------------------------------------------------------------------
 MD|                                          Instantaneous             Averages
 MD| CPU time per MD step [s]                      0.545145             0.338171
 MD| Energy drift per atom [K]           0.413847859681E+05   0.134412805143E+05
 MD| Potential energy [hartree]          0.239997255787E+06   0.240077728493E+06
 MD| Kinetic energy [hartree]            0.142687302319E+04   0.500492984706E+03
 MD| Temperature [K]                           24446.994194          8575.079136
 MD| ***************************************************************************
 MD| Estimated peak process memory after this step [MiB]                     311

 ENERGY| Total FORCE_EVAL ( NNP ) energy [hartree]        239971.384293280832935

 MD| ***************************************************************************
 MD| Step number                                                              42
 MD| Time [fs]                                                         21.000000
 MD| Conserved quantity [hartree]                             0.241806560766E+06
 MD| ---------------------------------------------------------------------------
 MD|                                          Instantaneous             Averages
 MD| CPU time per MD step [s]                      0.309887             0.337498
 MD| Energy drift per atom [K]           0.430362322844E+05   0.141459222231E+05
 MD| Potential energy [hartree]          0.239971384293E+06   0.240075196488E+06
 MD| Kinetic energy [hartree]            0.149286283303E+04   0.524120838237E+03
 MD| Temperature [K]                           25577.615120          8979.901422
 MD| ***************************************************************************
 MD| Estimated peak process memory after this step [MiB]                     311

 ENERGY| Total FORCE_EVAL ( NNP ) energy [hartree]        239960.229892607079819

 MD| ***************************************************************************
 MD| Step number                                                              43
 MD| Time [fs]                                                         21.500000
 MD| Conserved quantity [hartree]                             0.241925212094E+06
 MD| ---------------------------------------------------------------------------
 MD|                                          Instantaneous             Averages
 MD| CPU time per MD step [s]                      0.356964             0.337951
 MD| Energy drift per atom [K]           0.460853111832E+05   0.148886987105E+05
 MD| Potential energy [hartree]          0.239960229893E+06   0.240072522846E+06
 MD| Kinetic energy [hartree]            0.159683139710E+04   0.549067595420E+03
 MD| Temperature [K]                           27358.936121          9407.320833
 MD| ***************************************************************************
 MD| Estimated peak process memory after this step [MiB]                     311

 ENERGY| Total FORCE_EVAL ( NNP ) energy [hartree]        239953.812634842528496

 MD| ***************************************************************************
 MD| Step number                                                              44
 MD| Time [fs]                                                         22.000000
 MD| Conserved quantity [hartree]                             0.241978511604E+06
 MD| ---------------------------------------------------------------------------
 MD|                                          Instantaneous             Averages
 MD| CPU time per MD step [s]                      0.309977             0.337315
 MD| Energy drift per atom [K]           0.474549916829E+05   0.156288417326E+05
 MD| Potential energy [hartree]          0.239953812635E+06   0.240069824887E+06
 MD| Kinetic energy [hartree]            0.162992889011E+04   0.573632624845E+03
 MD| Temperature [K]                           27926.004253          9828.200002
 MD| ***************************************************************************
 MD| Estimated peak process memory after this step [MiB]                     311

 ENERGY| Total FORCE_EVAL ( NNP ) energy [hartree]        239901.886785866488935

 MD| ***************************************************************************
 MD| Step number                                                              45
 MD| Time [fs]                                                         22.500000
 MD| Conserved quantity [hartree]                             0.242013105244E+06
 MD| ---------------------------------------------------------------------------
 MD|                                          Instantaneous             Averages
 MD| CPU time per MD step [s]                      0.301187             0.336512
 MD| Energy drift per atom [K]           0.483439723533E+05   0.163558446353E+05
 MD| Potential energy [hartree]          0.239901886786E+06   0.240066092929E+06
 MD| Kinetic energy [hartree]            0.168915792096E+04   0.598422075870E+03
 MD| Temperature [K]                           28940.790958         10252.924245
 MD| ***************************************************************************
 MD| Estimated peak process memory after this step [MiB]                     311

 ENERGY| Total FORCE_EVAL ( NNP ) energy [hartree]        239852.974440018122550

 MD| ***************************************************************************
 MD| Step number                                                              46
 MD| Time [fs]                                                         23.000000
 MD| Conserved quantity [hartree]                             0.242080817050E+06
 MD| ---------------------------------------------------------------------------
 MD|                                          Instantaneous             Averages
 MD| CPU time per MD step [s]                      0.321224             0.336180
 MD| Energy drift per atom [K]           0.500840172580E+05   0.170890657793E+05
 MD| Potential energy [hartree]          0.239852974440E+06   0.240061459918E+06
 MD| Kinetic energy [hartree]            0.177741984527E+04   0.624052462161E+03
 MD| Temperature [K]                           30453.005931         10692.056456
 MD| ***************************************************************************
 MD| Estimated peak process memory after this step [MiB]                     311

 ENERGY| Total FORCE_EVAL ( NNP ) energy [hartree]        239843.864821042807307

 MD| ***************************************************************************
 MD| Step number                                                              47
 MD| Time [fs]                                                         23.500000
 MD| Conserved quantity [hartree]                             0.242244943326E+06
 MD| ---------------------------------------------------------------------------
 MD|                                          Instantaneous             Averages
 MD| CPU time per MD step [s]                      0.320471             0.335845
 MD| Energy drift per atom [K]           0.543017025624E+05   0.178808240087E+05
 MD| Potential energy [hartree]          0.239843864821E+06   0.240056830235E+06
 MD| Kinetic energy [hartree]            0.191983708561E+04   0.651622347766E+03
 MD| Temperature [K]                           32893.078307         11164.418623
 MD| ***************************************************************************
 MD| Estimated peak process memory after this step [MiB]                     311

 ENERGY| Total FORCE_EVAL ( NNP ) energy [hartree]        239827.710330369562143

 MD| ***************************************************************************
 MD| Step number                                                              48
 MD| Time [fs]                                                         24.000000
 MD| Conserved quantity [hartree]                             0.242474982659E+06
 MD| ---------------------------------------------------------------------------
 MD|                                          Instantaneous             Averages
 MD| CPU time per MD step [s]                      0.318656             0.335487
 MD| Energy drift per atom [K]           0.602132088585E+05   0.187627486931E+05
 MD| Potential energy [hartree]          0.239827710330E+06   0.240052056904E+06
 MD| Kinetic energy [hartree]            0.213278747416E+04   0.682479954566E+03
 MD| Temperature [K]                           36541.613831         11693.110190
 MD| ***************************************************************************
 MD| Estimated peak process memory after this step [MiB]                     311

 ENERGY| Total FORCE_EVAL ( NNP ) energy [hartree]        239776.404671682539629

 MD| ***************************************************************************
 MD| Step number                                                              49
 MD| Time [fs]                                                         24.500000
 MD| Conserved quantity [hartree]                             0.242566844034E+06
 MD| ---------------------------------------------------------------------------
 MD|                                          Instantaneous             Averages
 MD| CPU time per MD step [s]                      0.313009             0.335029
 MD| Energy drift per atom [K]           0.625738447018E+05   0.196568526932E+05
 MD| Potential energy [hartree]          0.239776404672E+06   0.240046431348E+06
 MD| Kinetic energy [hartree]            0.224040749988E+04   0.714274394267E+03
 MD| Temperature [K]                           38385.496293         12237.852763
 MD| ***************************************************************************
 MD| Estimated peak process memory after this step [MiB]                     311

 ENERGY| Total FORCE_EVAL ( NNP ) energy [hartree]        239745.223287391621852

 MD| ***************************************************************************
 MD| Step number                                                              50
 MD| Time [fs]                                                         25.000000
 MD| Conserved quantity [hartree]                             0.242847781545E+06
 MD| ---------------------------------------------------------------------------
 MD|                                          Instantaneous             Averages
 MD| CPU time per MD step [s]                      0.307337             0.334475
 MD| Energy drift per atom [K]           0.697933225468E+05   0.206595820903E+05
 MD| Potential energy [hartree]          0.239745223287E+06   0.240040407187E+06
 MD| Kinetic energy [hartree]            0.251327234137E+04   0.750254353209E+03
 MD| Temperature [K]                           43060.562040         12854.306949
 MD| ***************************************************************************
 MD| Estimated peak process memory after this step [MiB]                     311

 ENERGY| Total FORCE_EVAL ( NNP ) energy [hartree]        239760.129500095761614

 MD| ***************************************************************************
 MD| Step number                                                              51
 MD| Time [fs]                                                         25.500000
 MD| Conserved quantity [hartree]                             0.243028986015E+06
 MD| ---------------------------------------------------------------------------
 MD|                                          Instantaneous             Averages
 MD| CPU time per MD step [s]                      0.312097             0.334036
 MD| Energy drift per atom [K]           0.744498799795E+05   0.217142938136E+05
 MD| Potential energy [hartree]          0.239760129500E+06   0.240034911546E+06
 MD| Kinetic energy [hartree]            0.263704713962E+04   0.787250290197E+03
 MD| Temperature [K]                           45181.228508         13488.168156
 MD| ***************************************************************************
 MD| Estimated peak process memory after this step [MiB]                     311

 ENERGY| Total FORCE_EVAL ( NNP ) energy [hartree]        239734.399025311984587

 MD| ***************************************************************************
 MD| Step number                                                              52
 MD| Time [fs]                                                         26.000000
 MD| Conserved quantity [hartree]                             0.243148400643E+06
 MD| ---------------------------------------------------------------------------
 MD|                                          Instantaneous             Averages
 MD| CPU time per MD step [s]                      0.307019             0.333516
 MD| Energy drift per atom [K]           0.775185739875E+05   0.227874530477E+05
 MD| Potential energy [hartree]          0.239734399025E+06   0.240029132459E+06
 MD| Kinetic energy [hartree]            0.273746783636E+04   0.824754473777E+03
 MD| Temperature [K]                           46901.762957         14130.737287
 MD| ***************************************************************************
 MD| Estimated peak process memory after this step [MiB]                     311

 ENERGY| Total FORCE_EVAL ( NNP ) energy [hartree]        239670.594092696759617

 MD| ***************************************************************************
 MD| Step number                                                              53
 MD| Time [fs]                                                         26.500000
 MD| Conserved quantity [hartree]                             0.243299316198E+06
 MD| ---------------------------------------------------------------------------
 MD|                                          Instantaneous             Averages
 MD| CPU time per MD step [s]                      0.311620             0.333103
 MD| Energy drift per atom [K]           0.813967727275E+05   0.238932892681E+05
 MD| Potential energy [hartree]          0.239670594093E+06   0.240022367584E+06
 MD| Kinetic energy [hartree]            0.290560643794E+04   0.864015831592E+03
 MD| Temperature [K]                           49782.526241         14803.412550
 MD| ***************************************************************************
 MD| Estimated peak process memory after this step [MiB]                     311

 ENERGY| Total FORCE_EVAL ( NNP ) energy [hartree]        239644.754571817291435

 MD| ***************************************************************************
 MD| Step number                                                              54
 MD| Time [fs]                                                         27.000000
 MD| Conserved quantity [hartree]                             0.243444920373E+06
 MD| ---------------------------------------------------------------------------
 MD|                                          Instantaneous             Averages
 MD| CPU time per MD step [s]                      0.318822             0.332839
 MD| Energy drift per atom [K]           0.851384806761E+05   0.250274594794E+05
 MD| Potential energy [hartree]          0.239644754572E+06   0.240015374751E+06
 MD| Kinetic energy [hartree]            0.302764647602E+04   0.904083065748E+03
 MD| Temperature [K]                           51873.470603         15489.895107
 MD| ***************************************************************************
 MD| Estimated peak process memory after this step [MiB]                     311

 ENERGY| Total FORCE_EVAL ( NNP ) energy [hartree]        239581.267863461544039

 MD| ***************************************************************************
 MD| Step number                                                              55
 MD| Time [fs]                                                         27.500000
 MD| Conserved quantity [hartree]                             0.243592645093E+06
 MD| ---------------------------------------------------------------------------
 MD|                                          Instantaneous             Averages
 MD| CPU time per MD step [s]                      0.306898             0.332367
 MD| Energy drift per atom [K]           0.889346819555E+05   0.261894089789E+05
 MD| Potential energy [hartree]          0.239581267863E+06   0.240007481898E+06
 MD| Kinetic energy [hartree]            0.318766604385E+04   0.945602756259E+03
 MD| Temperature [K]                           54615.128327         16201.262983
 MD| ***************************************************************************
 MD| Estimated peak process memory after this step [MiB]                     311

 ENERGY| Total FORCE_EVAL ( NNP ) energy [hartree]        239489.047869540285319

 MD| ***************************************************************************
 MD| Step number                                                              56
 MD| Time [fs]                                                         28.000000
 MD| Conserved quantity [hartree]                             0.243686436532E+06
 MD| ---------------------------------------------------------------------------
 MD|                                          Instantaneous             Averages
 MD| CPU time per MD step [s]                      0.390236             0.333401
 MD| Energy drift per atom [K]           0.913449162176E+05   0.273529001796E+05
 MD| Potential energy [hartree]          0.239489047870E+06   0.239998224148E+06
 MD| Kinetic energy [hartree]            0.331988705979E+04   0.988000690250E+03
 MD| Temperature [K]                           56880.506084         16927.678039
 MD| ***************************************************************************
 MD| Estimated peak process memory after this step [MiB]                     311

 ENERGY| Total FORCE_EVAL ( NNP ) energy [hartree]        239464.859817484015366

 MD| ***************************************************************************
 MD| Step number                                                              57
 MD| Time [fs]                                                         28.500000
 MD| Conserved quantity [hartree]                             0.244048050850E+06
 MD| ---------------------------------------------------------------------------
 MD|                                          Instantaneous             Averages
 MD| CPU time per MD step [s]                      0.305420             0.332910
 MD| Energy drift per atom [K]           0.100637611056E+06   0.286385968617E+05
 MD| Potential energy [hartree]          0.239464859817E+06   0.239988866879E+06
 MD| Kinetic energy [hartree]            0.364814169247E+04   0.103466983064E+04
 MD| Temperature [K]                           62504.579824         17727.272807
 MD| ***************************************************************************
 MD| Estimated peak process memory after this step [MiB]                     311

 ENERGY| Total FORCE_EVAL ( NNP ) energy [hartree]        239382.750946079788264

 MD| ***************************************************************************
 MD| Step number                                                              58
 MD| Time [fs]                                                         29.000000
 MD| Conserved quantity [hartree]                             0.244411294825E+06
 MD| ---------------------------------------------------------------------------
 MD|                                          Instantaneous             Averages
 MD| CPU time per MD step [s]                      0.316814             0.332632
 MD| Energy drift per atom [K]           0.109972184469E+06   0.300409000963E+05
 MD| Potential energy [hartree]          0.239382750946E+06   0.239978416604E+06
 MD| Kinetic energy [hartree]            0.402984660060E+04   0.108631080943E+04
 MD| Temperature [K]                           69044.431318         18612.051402
 MD| ***************************************************************************
 MD| Estimated peak process memory after this step [MiB]                     311

 ENERGY| Total FORCE_EVAL ( NNP ) energy [hartree]        239231.879185551166302

 MD| ***************************************************************************
 MD| Step number                                                              59
 MD| Time [fs]                                                         29.500000
 MD| Conserved quantity [hartree]                             0.244577628415E+06
 MD| ---------------------------------------------------------------------------
 MD|                                          Instantaneous             Averages
 MD| CPU time per MD step [s]                      0.326477             0.332528
 MD| Energy drift per atom [K]           0.114246592895E+06   0.314681152285E+05
 MD| Potential energy [hartree]          0.239231879186E+06   0.239965763428E+06
 MD| Kinetic energy [hartree]            0.427792399111E+04   0.114040594811E+04
[...]
 MD| Conserved quantity [hartree]                             0.271540278474E+06
 MD| ---------------------------------------------------------------------------
 MD|                                          Instantaneous             Averages
 MD| CPU time per MD step [s]                      0.441471             0.339138
 MD| Energy drift per atom [K]           0.807127560433E+06   0.148169325256E+06
 MD| Potential energy [hartree]          0.232385976005E+06   0.238928608010E+06
 MD| Kinetic energy [hartree]            0.310859850195E+05   0.556776991205E+04
 MD| Temperature [K]                          532604.431472         95394.079574
 MD| ***************************************************************************
 MD| Estimated peak process memory after this step [MiB]                     311

 ENERGY| Total FORCE_EVAL ( NNP ) energy [hartree]        232024.487328393937787

 MD| ***************************************************************************
 MD| Step number                                                              91
 MD| Time [fs]                                                         45.500000
 MD| Conserved quantity [hartree]                             0.274079151774E+06
 MD| ---------------------------------------------------------------------------
 MD|                                          Instantaneous             Averages
 MD| CPU time per MD step [s]                      0.377419             0.339559
 MD| Energy drift per atom [K]           0.872371035546E+06   0.156127585808E+06
 MD| Potential energy [hartree]          0.232024487328E+06   0.238852738552E+06
 MD| Kinetic energy [hartree]            0.334472481448E+05   0.587413780472E+04
 MD| Temperature [K]                          573060.579271        100643.161988
 MD| ***************************************************************************
 MD| Estimated peak process memory after this step [MiB]                     311

 ENERGY| Total FORCE_EVAL ( NNP ) energy [hartree]        231528.556469420000212

 MD| ***************************************************************************
 MD| Step number                                                              92
 MD| Time [fs]                                                         46.000000
 MD| Conserved quantity [hartree]                             0.275644026424E+06
 MD| ---------------------------------------------------------------------------
 MD|                                          Instantaneous             Averages
 MD| CPU time per MD step [s]                      0.354445             0.339721
 MD| Energy drift per atom [K]           0.912584881721E+06   0.164349947720E+06
 MD| Potential energy [hartree]          0.231528556469E+06   0.238773127877E+06
 MD| Kinetic energy [hartree]            0.349372224259E+05   0.619004089842E+04
 MD| Temperature [K]                          598588.704063        106055.613532
 MD| ***************************************************************************
 MD| Estimated peak process memory after this step [MiB]                     311

 ENERGY| Total FORCE_EVAL ( NNP ) energy [hartree]        230806.780219971493352

 MD| ***************************************************************************
 MD| Step number                                                              93
 MD| Time [fs]                                                         46.500000
 MD| Conserved quantity [hartree]                             0.277227819576E+06
 MD| ---------------------------------------------------------------------------
 MD|                                          Instantaneous             Averages
 MD| CPU time per MD step [s]                      0.365951             0.340003
 MD| Energy drift per atom [K]           0.953284891872E+06   0.172833119163E+06
 MD| Potential energy [hartree]          0.230806780220E+06   0.238687468225E+06
 MD| Kinetic energy [hartree]            0.366452616472E+05   0.651751639035E+04
 MD| Temperature [K]                          627852.993351        111666.338046
 MD| ***************************************************************************
 MD| Estimated peak process memory after this step [MiB]                     311

 ENERGY| Total FORCE_EVAL ( NNP ) energy [hartree]        230099.686031874240143

 MD| ***************************************************************************
 MD| Step number                                                              94
 MD| Time [fs]                                                         47.000000
 MD| Conserved quantity [hartree]                             0.279153423831E+06
 MD| ---------------------------------------------------------------------------
 MD|                                          Instantaneous             Averages
 MD| CPU time per MD step [s]                      0.359537             0.340210
 MD| Energy drift per atom [K]           0.100276869768E+07   0.181662221062E+06
 MD| Potential energy [hartree]          0.230099686032E+06   0.238596108840E+06
 MD| Kinetic energy [hartree]            0.386513906799E+05   0.685936611683E+04
 MD| Temperature [K]                          662224.534490        117523.340136
 MD| ***************************************************************************
 MD| Estimated peak process memory after this step [MiB]                     311

 ENERGY| Total FORCE_EVAL ( NNP ) energy [hartree]        229323.223166091251187

 MD| ***************************************************************************
 MD| Step number                                                              95
 MD| Time [fs]                                                         47.500000
 MD| Conserved quantity [hartree]                             0.281616558136E+06
 MD| ---------------------------------------------------------------------------
 MD|                                          Instantaneous             Averages
 MD| CPU time per MD step [s]                      0.387155             0.340705
 MD| Energy drift per atom [K]           0.106606584677E+07   0.190971732912E+06
 MD| Potential energy [hartree]          0.229323223166E+06   0.238498499517E+06
 MD| Kinetic energy [hartree]            0.412262842825E+05   0.722112315015E+04
 MD| Temperature [K]                          706340.869952        123721.419397
 MD| ***************************************************************************
 MD| Estimated peak process memory after this step [MiB]                     311

 ENERGY| Total FORCE_EVAL ( NNP ) energy [hartree]        228794.532108337472891

 MD| ***************************************************************************
 MD| Step number                                                              96
 MD| Time [fs]                                                         48.000000
 MD| Conserved quantity [hartree]                             0.284113922503E+06
 MD| ---------------------------------------------------------------------------
 MD|                                          Instantaneous             Averages
 MD| CPU time per MD step [s]                      0.361848             0.340925
 MD| Energy drift per atom [K]           0.113024263335E+07   0.200755804791E+06
 MD| Potential energy [hartree]          0.228794532108E+06   0.238397416523E+06
 MD| Kinetic energy [hartree]            0.435466550081E+05   0.759951410701E+04
 MD| Temperature [K]                          746096.397413        130204.492085
 MD| ***************************************************************************
 MD| Estimated peak process memory after this step [MiB]                     311

 ENERGY| Total FORCE_EVAL ( NNP ) energy [hartree]        227798.203995589574333

 MD| ***************************************************************************
 MD| Step number                                                              97
 MD| Time [fs]                                                         48.500000
 MD| Conserved quantity [hartree]                             0.286654939121E+06
 MD| ---------------------------------------------------------------------------
 MD|                                          Instantaneous             Averages
 MD| CPU time per MD step [s]                      0.492537             0.342488
 MD| Energy drift per atom [K]           0.119554118707E+07   0.211011324196E+06
 MD| Potential energy [hartree]          0.227798203996E+06   0.238288146291E+06
 MD| Kinetic energy [hartree]            0.463348002818E+05   0.799884695417E+04
 MD| Temperature [K]                          793866.430353        137046.367737
 MD| ***************************************************************************
 MD| Estimated peak process memory after this step [MiB]                     311

 ENERGY| Total FORCE_EVAL ( NNP ) energy [hartree]        227183.436521196854301

 MD| ***************************************************************************
 MD| Step number                                                              98
 MD| Time [fs]                                                         49.000000
 MD| Conserved quantity [hartree]                             0.290427573059E+06
 MD| ---------------------------------------------------------------------------
 MD|                                          Instantaneous             Averages
 MD| CPU time per MD step [s]                      0.358270             0.342649
 MD| Energy drift per atom [K]           0.129248960450E+07   0.222046816852E+06
 MD| Potential energy [hartree]          0.227183436521E+06   0.238174832926E+06
 MD| Kinetic energy [hartree]            0.499205779282E+05   0.842661971921E+04
 MD| Temperature [K]                          855302.510426        144375.512050
 MD| ***************************************************************************
 MD| Estimated peak process memory after this step [MiB]                     311

 ENERGY| Total FORCE_EVAL ( NNP ) energy [hartree]        226270.530957040115027

 MD| ***************************************************************************
 MD| Step number                                                              99
 MD| Time [fs]                                                         49.500000
 MD| Conserved quantity [hartree]                             0.294043420318E+06
 MD| ---------------------------------------------------------------------------
 MD|                                          Instantaneous             Averages
 MD| CPU time per MD step [s]                      0.372035             0.342946
 MD| Energy drift per atom [K]           0.138540894816E+07   0.233797949492E+06
 MD| Potential energy [hartree]          0.226270530957E+06   0.238054587451E+06
 MD| Kinetic energy [hartree]            0.535881898231E+05   0.888279719501E+04
 MD| Temperature [K]                          918140.678395        152191.321812
 MD| ***************************************************************************
 MD| Estimated peak process memory after this step [MiB]                     311

 ENERGY| Total FORCE_EVAL ( NNP ) energy [hartree]        225305.840857571922243

 MD| ***************************************************************************
 MD| Step number                                                             100
 MD| Time [fs]                                                         50.000000
 MD| Conserved quantity [hartree]                             0.297250385115E+06
 MD| ---------------------------------------------------------------------------
 MD|                                          Instantaneous             Averages
 MD| CPU time per MD step [s]                      0.334818             0.342864
 MD| Energy drift per atom [K]           0.146782090941E+07   0.246138179091E+06
 MD| Potential energy [hartree]          0.225305840858E+06   0.237927099985E+06
 MD| Kinetic energy [hartree]            0.568379572357E+05   0.936234879541E+04
 MD| Temperature [K]                          973819.805953        160407.606653
 MD| ***************************************************************************
 MD| Estimated peak process memory after this step [MiB]                     311

 -------------------------------------------------------------------------------
 -                                                                             -
 -                                DBCSR STATISTICS                             -
 -                                                                             -
 -------------------------------------------------------------------------------
 COUNTER                                    TOTAL       BLAS       SMM       ACC
 flops inhomo. stacks                           0       0.0%      0.0%      0.0%
 flops total                         0.000000E+00       0.0%      0.0%      0.0%
 flops max/rank                      0.000000E+00       0.0%      0.0%      0.0%
 matmuls inhomo. stacks                         0       0.0%      0.0%      0.0%
 matmuls total                                  0       0.0%      0.0%      0.0%
 number of processed stacks                     0       0.0%      0.0%      0.0%
 average stack size                                     0.0       0.0       0.0
 marketing flops                     0.000000E+00
 -------------------------------------------------------------------------------
 -                                                                             -
 -                      DBCSR MESSAGE PASSING PERFORMANCE                      -
 -                                                                             -
 -------------------------------------------------------------------------------
 ROUTINE             CALLS      AVE VOLUME [Bytes]
 MP_Bcast                1                     12.
 MP_Allreduce           19                     21.
 -------------------------------------------------------------------------------

 MEMORY| Estimated peak process memory [MiB]                                 311

 -------------------------------------------------------------------------------
 -                                                                             -
 -                         MESSAGE PASSING PERFORMANCE                         -
 -                                                                             -
 -------------------------------------------------------------------------------

 ROUTINE             CALLS      AVE VOLUME [Bytes]
 MP_Bcast              286                 179373.
 MP_Allreduce         1444                  68596.
 -------------------------------------------------------------------------------


 -------------------------------------------------------------------------------
 -                                                                             -
 -                           R E F E R E N C E S                               -
 -                                                                             -
 -------------------------------------------------------------------------------
 
 CP2K version 2026.1 (Development Version), the CP2K developers group (2026).
 CP2K is freely available from https://www.cp2k.org/ .
 
 C. Schran, J. Behler, D. Marx.
 J. Chem. Theory Comput. 16, 88-99 (2020).
 Automated Fitting of Neural Network Potentials at Coupled Cluster Accuracy: 
 Protonated Water Clusters as Testing Ground.
 https://doi.org/10.1021/acs.jctc.9b00805

 C. Schran, K. Brezina, O. Marsalek.
 J. Chem. Phys. 153, 104105 (2020).
 Committee neural network potentials control generalization errors and enable 
 active learning.
 https://doi.org/10.1063/5.0016004

 O. Schuett, P. Messmer, J. Hutter, J. VandeVondele.
 Electronic Structure Calculations on Graphics Processing Units, 173-190 (2016).
 GPU-Accelerated Sparse Matrix-Matrix Multiplication for Linear Scaling Density 
 Functional Theory.
 https://doi.org/10.1002/9781118670712.ch8

 A. Heinecke, G. Henry, M. Hutchinson, H. Pabst.
 Proceedings of Intl. Supercomputing Conference, 981-991 (2016).
 LIBXSMM: Accelerating Small Matrix Multiplications by Runtime Code Generation.
 https://doi.org/10.1109/SC.2016.83

 J. Hutter, M. Iannuzzi, F. Schiffmann, J. VandeVondele.
 WIREs Comput Mol Sci. 4, 15-25 (2014).
 CP2K: atomistic simulations of condensed matter systems.
 https://doi.org/10.1002/wcms.1159

 U. Borstnik, J. VandeVondele, V. Weber, J. Hutter.
 Parallel Comput. 40, 47-58 (2014).
 Sparse matrix multiplication: The distributed block-compressed sparse row 
 library.
 https://doi.org/10.1016/j.parco.2014.03.012

 J. Behler.
 J. Chem. Phys. 134, 074106 (2011).
 Atom-centered symmetry functions for constructing high-dimensional neural 
 network potentials.
 https://doi.org/10.1063/1.3553717

 G. Bussi, D. Donadio, M. Parrinello.
 J. Chem. Phys. 126, 014101 (2007).
 Canonical sampling through velocity rescaling.
 https://doi.org/10.1063/1.2408420

 J. Behler, M. Parrinello.
 Phys. Rev. Lett. 98, 146401 (2007).
 Generalized neural-network representation of high-dimensional potential-energy 
 surfaces.
 https://doi.org/10.1103/PhysRevLett.98.146401

 M. Frigo, S. G. Johnson.
 Proc. IEEE 93, 216-231 (2005).
 The design and implementation of FFTW3.
 https://doi.org/10.1109/JPROC.2004.840301


 -------------------------------------------------------------------------------
 -                                                                             -
 -                                T I M I N G                                  -
 -                                                                             -
 -------------------------------------------------------------------------------
 SUBROUTINE                       CALLS  ASD         SELF TIME        TOTAL TIME
                                MAXIMUM       AVERAGE  MAXIMUM  AVERAGE  MAXIMUM
 CP2K                                 1  1.0    0.016    0.017   34.810   34.810
 qs_mol_dyn_low                       1  2.0    0.005    0.006   34.409   34.607
 velocity_verlet                    100  3.0    0.020    0.025   33.346   33.529
 nnp_calc_energy_force              101  4.0    0.400    1.294   26.183   26.185
 nnp_calc_acsf                    34542  5.0    0.859    1.010   18.263   24.572
 nnp_acsf_angular                 34542  6.0   16.573   22.673   16.573   22.673
 mp_sum_dm                          301  5.0    6.541   10.395    6.541   10.395
 csvr_particles                     200  4.0    0.626    0.727    6.996    7.180
 md_output                          100  3.0    0.000    0.000    0.756    7.131
 mp_sum_dv                          609  4.4    6.731    6.949    6.731    6.949
 md_write_output                    101  4.0    0.033    1.010    0.187    6.248
 write_trajectory                   404  5.0    0.097    3.337    0.149    5.234
 write_particle_coordinates         101  6.0    0.053    1.897    0.053    1.897
 write_restart                      100  4.0    0.022    0.740    0.571    0.940
 nnp_acsf_radial                  34542  6.0    0.831    0.918    0.831    0.918
 mp_sum_b                           101  5.0    0.864    0.891    0.864    0.891
 -------------------------------------------------------------------------------

 The number of warnings for this run is : 0
 
 -------------------------------------------------------------------------------
  **** **** ******  **  PROGRAM ENDED AT                 2026-05-02 15:47:15.664
 ***** ** ***  *** **   PROGRAM RAN ON                             phy-cerberus4
 **    ****   ******    PROGRAM RAN BY                                     crm98
 ***** **    ** ** **   PROGRAM PROCESS ID                               1225936
  **** **  *******  **  PROGRAM STOPPED IN /lsc/zeushome/crm98/cp2k-benchmarks/r
                                           esults/cp2k_optimized/NNP/NNP_size_sc
                                           aling_feature-nnp-verlet-cells_02-05_
                                           15-45/N_4096
