 DBCSR| CPU Multiplication driver                                           XSMM (U)
 DBCSR| Multrec recursion limit                                              512 (U)
 DBCSR| Multiplication stack size                                           1000 (D)
 DBCSR| Maximum elements for images                                    UNLIMITED (U)
 DBCSR| Multiplicative factor virtual images                                   1 (U)
 DBCSR| Use multiplication densification                                       T (D)
 DBCSR| Multiplication size stacks                                             3 (U)
 DBCSR| Use memory pool for CPU allocation                                     F (U)
 DBCSR| Number of 3D layers                                               SINGLE (U)
 DBCSR| Use MPI memory allocation                                              F (U)
 DBCSR| Use RMA algorithm                                                      F (U)
 DBCSR| Use Communication thread                                               T (U)
 DBCSR| Communication thread load                                              0 (D)
 DBCSR| MPI: My process id                                                     0
 DBCSR| MPI: Number of processes                                              16
 DBCSR| OMP: Current number of threads                                        32
 DBCSR| OMP: Max number of threads                                            32
 DBCSR| Split modifier for TAS multiplication algorithm                  1.0E+00 (U)


  **** **** ******  **  PROGRAM STARTED AT               2026-04-29 22:59:05.728
 ***** ** ***  *** **   PROGRAM STARTED ON                             cerberus1
 **    ****   ******    PROGRAM STARTED BY                                 crm98
 ***** **    ** ** **   PROGRAM PROCESS ID                               3629155
  **** **  *******  **  PROGRAM STARTED IN /lsc/zeushome/crm98/cp2k-upstream-mas
                                           ter/benchmarks/NNP

 CP2K| version string:                 CP2K version 2026.1 (Development Version)
 CP2K| source code revision number:                                   d5b0302fb9
 CP2K| cp2kflags: omp libint fftw3 libxc elpa parallel scalapack mpi_f08 cosma a
 CP2K|            ce deepmd xsmm plumed2 spglib libdftd4 dftd4_v3 mctc-lib tblit
 CP2K|            te sirius libvori libbqb libtorch mimic libvdwxc hdf5 trexio l
 CP2K|            libsmeagol greenx
 CP2K| is freely available from                            https://www.cp2k.org/
 CP2K| Program compiled at                                   2026-04-23 16:49:23
 CP2K| Program compiled on                                             cerberus1
 CP2K| Program compiled for                                               x86_64
 CP2K| Data directory path           /local/data/public/crm98/original_cp2k/data
 CP2K| Input file name                                         H2O-64_NNP_MD.inp

 GLOBAL| Force Environment number                                              1
 GLOBAL| Basis set file name                                           BASIS_SET
 GLOBAL| Potential file name                                           POTENTIAL
 GLOBAL| MM Potential file name                                     MM_POTENTIAL
 GLOBAL| Coordinate file name                                      __STD_INPUT__
 GLOBAL| Method name                                                        CP2K
 GLOBAL| Project name                                              H2O-64_NNP_MD
 GLOBAL| Run type                                                             MD
 GLOBAL| FFT library                                                       FFTW3
 GLOBAL| Diagonalization library                                            ELPA
 GLOBAL| Cholesky decomposition library                                ScaLAPACK
 GLOBAL| DGEMM library                                                      BLAS
 GLOBAL| Minimum number of eigenvectors for ELPA usage                        64
 GLOBAL| Orthonormality check for eigenvectors                          DISABLED
 GLOBAL| Matrix multiplication library                                     COSMA
 GLOBAL| All-to-all communication in single precision                          F
 GLOBAL| FFTs using library dependent lengths                                  F
 GLOBAL| Grid backend                                                       AUTO
 GLOBAL| Global print level                                                  LOW
 GLOBAL| MPI I/O enabled                                                       T
 GLOBAL| Total number of message passing processes                            16
 GLOBAL| Number of distributed systems (nodes)                                 1
 GLOBAL| Number of threads for this process                                   32
 GLOBAL| This output is from process                                           0
 GLOBAL| OpenMP stack size per thread (OMP_STACKSIZE)                    default
 GLOBAL| CPU model name               Intel(R) Xeon(R) Silver 4314 CPU @ 2.40GHz
 GLOBAL| CPUID                                                              1003

 MEMORY| system memory details [Kb]
 MEMORY|                        rank 0           min           max       average
 MEMORY| MemTotal             65365796      65365796      65365796      65365796
 MEMORY| MemFree               3251500       3251500       3251500       3251500
 MEMORY| Buffers               1319368       1319368       1319368       1319368
 MEMORY| Cached               47428724      47428724      47428724      47428724
 MEMORY| Slab                  7157020       7157020       7157020       7157020
 MEMORY| SReclaimable          5792856       5792856       5792856       5792856
 MEMORY| MemLikelyFree        57792448      57792448      57792448      57792448


 GENERATE|  Preliminary Number of Bonds generated:                             0
 GENERATE|  Achieved consistency in connectivity generation.
 
 NNP| Neural Network Potential Force Environment
 NNP| Reading NNP input from file: NNP/bulkH2O-jcp2020-cnnp/nnp-1/input.nn
 NNP| Activation functions:  1  1  3
 NNP| short range atomic symmetry functions element H :
 NNP|   1 H   2 H             0.001  0.000 12.000
 NNP|   2 H   2 O             0.001  0.000 12.000
 NNP|   3 H   2 H             0.010  0.000 12.000
 NNP|   4 H   2 O             0.010  0.000 12.000
 NNP|   5 H   2 H             0.030  0.000 12.000
 NNP|   6 H   2 O             0.030  0.000 12.000
 NNP|   7 H   2 H             0.060  0.000 12.000
 NNP|   8 H   2 O             0.060  0.000 12.000
 NNP|   9 H   2 O             0.150  0.900 12.000
 NNP|  10 H   2 H             0.150  1.900 12.000
 NNP|  11 H   2 O             0.300  0.900 12.000
 NNP|  12 H   2 H             0.300  1.900 12.000
 NNP|  13 H   2 O             0.600  0.900 12.000
 NNP|  14 H   2 H             0.600  1.900 12.000
 NNP|  15 H   2 O             1.500  0.900 12.000
 NNP|  16 H   2 H             1.500  1.900 12.000
 NNP|   1 H   3 O  O   0.001 -1.000  4.000 12.000
 NNP|   2 H   3 O  O   0.001  1.000  4.000 12.000
 NNP|   3 H   3 H  O   0.010 -1.000  4.000 12.000
 NNP|   4 H   3 H  O   0.010  1.000  4.000 12.000
 NNP|   5 H   3 H  O   0.030 -1.000  1.000 12.000
 NNP|   6 H   3 O  O   0.030 -1.000  1.000 12.000
 NNP|   7 H   3 H  O   0.030  1.000  1.000 12.000
 NNP|   8 H   3 O  O   0.030  1.000  1.000 12.000
 NNP|   9 H   3 H  O   0.070 -1.000  1.000 12.000
 NNP|  10 H   3 H  O   0.070  1.000  1.000 12.000
 NNP|  11 H   3 H  O   0.200  1.000  1.000 12.000
 NNP| short range atomic symmetry functions element O :
 NNP|   1 O   2 H             0.001  0.000 12.000
 NNP|   2 O   2 O             0.001  0.000 12.000
 NNP|   3 O   2 H             0.010  0.000 12.000
 NNP|   4 O   2 O             0.010  0.000 12.000
 NNP|   5 O   2 H             0.030  0.000 12.000
 NNP|   6 O   2 O             0.030  0.000 12.000
 NNP|   7 O   2 H             0.060  0.000 12.000
 NNP|   8 O   2 O             0.060  0.000 12.000
 NNP|   9 O   2 H             0.150  0.900 12.000
 NNP|  10 O   2 O             0.150  4.000 12.000
 NNP|  11 O   2 H             0.300  0.900 12.000
 NNP|  12 O   2 O             0.300  4.000 12.000
 NNP|  13 O   2 H             0.600  0.900 12.000
 NNP|  14 O   2 O             0.600  4.000 12.000
 NNP|  15 O   2 H             1.500  0.900 12.000
 NNP|  16 O   2 O             1.500  4.000 12.000
 NNP|   1 O   3 H  O   0.001 -1.000  4.000 12.000
 NNP|   2 O   3 O  O   0.001 -1.000  4.000 12.000
 NNP|   3 O   3 H  O   0.001  1.000  4.000 12.000
 NNP|   4 O   3 O  O   0.001  1.000  4.000 12.000
 NNP|   5 O   3 H  H   0.010 -1.000  4.000 12.000
 NNP|   6 O   3 H  H   0.010  1.000  4.000 12.000
 NNP|   7 O   3 H  H   0.030 -1.000  1.000 12.000
 NNP|   8 O   3 H  O   0.030 -1.000  1.000 12.000
 NNP|   9 O   3 O  O   0.030 -1.000  1.000 12.000
 NNP|  10 O   3 H  H   0.030  1.000  1.000 12.000
 NNP|  11 O   3 H  O   0.030  1.000  1.000 12.000
 NNP|  12 O   3 O  O   0.030  1.000  1.000 12.000
 NNP|  13 O   3 H  H   0.070 -1.000  1.000 12.000
 NNP|  14 O   3 H  H   0.070  1.000  1.000 12.000
 NNP| Neural network specification for element H :
 NNP|  27 nodes in layer  1
 NNP|  20 nodes in layer  2
 NNP|  20 nodes in layer  3
 NNP|   1 nodes in layer  4
 NNP| Neural network specification for element O :
 NNP|  30 nodes in layer  1
 NNP|  20 nodes in layer  2
 NNP|  20 nodes in layer  3
 NNP|   1 nodes in layer  4
 NNP| Reading scaling information from file: NNP/bulkH2O-jcp2020-cnnp/nnp-1/input.nn
 NNP| Initializing weights for model:            1
 NNP| Reading weights from file: NNP/bulkH2O-jcp2020-cnnp/nnp-1/weights.001.data
 NNP| Reading weights from file: NNP/bulkH2O-jcp2020-cnnp/nnp-1/weights.008.data
 NNP| NNP force environment initialized

 MD_PAR| Molecular dynamics protocol (MD input parameters)
 MD_PAR| Ensemble type                                                       NVT
 MD_PAR| Number of time steps                                                100
 MD_PAR| Time step [fs]                                                 0.500000
 MD_PAR| Temperature [K]                                              300.000000
 MD_PAR| Temperature tolerance [K]                                      0.000000
 MD_PAR| Print MD information every                                    1 step(s)
 MD_PAR| File type   Print frequency [steps]                          File names
 MD_PAR| Coordinates          1                          H2O-64_NNP_MD-pos-1.xyz
 MD_PAR| Velocities           1                          H2O-64_NNP_MD-vel-1.xyz
 MD_PAR| Energies             1                             H2O-64_NNP_MD-1.ener
 MD_PAR| Dump                20                          H2O-64_NNP_MD-1.restart

 ROT| Rotational analysis information
 ROT| Principal axes and moments of inertia [a.u.]
 ROT|                           1                   2                   3
 ROT| Eigenvalues      1.04052477149E+09   1.26053121061E+09   1.38446891229E+09
 ROT|      x              0.926985305794      0.086790597640      0.364918669024
 ROT|      y             -0.318278247060      0.696798663376      0.642783462891
 ROT|      z             -0.198487279920     -0.711996499204      0.673545681325
 ROT| Number of rotovibrational vectors                                        6

 DOF| Calculation of degrees of freedom
 DOF| Number of atoms                                                        192
 DOF| Number of intramolecular constraints                                     0
 DOF| Number of intermolecular constraints                                     0
 DOF| Invariants (translations + rotations)                                    3
 DOF| Degrees of freedom                                                     573

 DOF| Restraints information
 DOF| Number of intramolecular restraints                                      0
 DOF| Number of intermolecular restraints                                      0

 THERMOSTAT| Thermostat information for PARTICLES
 THERMOSTAT| Type of thermostat            Canonical Sampling/Velocity Rescaling
 THERMOSTAT| CSVR time constant [fs]                                   30.000000
 THERMOSTAT| Initial kinetic energy                           0.000000000000E+00
 THERMOSTAT| End of thermostat information for PARTICLES

 MD_VEL| Velocities initialization
 MD_VEL| Initial temperature [K]                                      300.000000
 MD_VEL| COM velocity             0.0000000000    -0.0000000000     0.0000000000

 ENERGY| Total FORCE_EVAL ( NNP ) energy [hartree]          3751.248182459733925

 MD_INI| MD initialization
 MD_INI| Potential energy [hartree]                           0.375124818246E+04
 MD_INI| Kinetic energy [hartree]                             0.272187778755E+00
 MD_INI| Temperature [K]                                              300.000000
 MD_INI| Cell volume [bohr^3]                                 1.292889458088E+04
 MD_INI| Cell volume [ang^3]                                  1.915864488000E+03
 MD_INI| Cell lengths [bohr]      2.34703986E+01  2.34703986E+01  2.34703986E+01
 MD_INI| Cell lengths [ang]       1.24200000E+01  1.24200000E+01  1.24200000E+01
 MD_INI| Cell angles [deg]        9.00000000E+01  9.00000000E+01  9.00000000E+01

 ENERGY| Total FORCE_EVAL ( NNP ) energy [hartree]          3751.245500613425975

 MD| ***************************************************************************
 MD| Step number                                                               1
 MD| Time [fs]                                                          0.500000
 MD| Conserved quantity [hartree]                             0.375152026820E+04
 MD| ---------------------------------------------------------------------------
 MD|                                          Instantaneous             Averages
 MD| CPU time per MD step [s]                      0.069411             0.069411
 MD| Energy drift per atom [K]          -0.167816857383E+00   0.000000000000E+00
 MD| Potential energy [hartree]          0.375124550061E+04   0.375124550061E+04
 MD| Kinetic energy [hartree]            0.269574764118E+00   0.269574764118E+00
 MD| Temperature [K]                             297.119987           297.119987
 MD| ***************************************************************************
 MD| Estimated peak process memory after this step [MiB]                     279

 ENERGY| Total FORCE_EVAL ( NNP ) energy [hartree]          3751.243380648664242

 MD| ***************************************************************************
 MD| Step number                                                               2
 MD| Time [fs]                                                          1.000000
 MD| Conserved quantity [hartree]                             0.375152023506E+04
 MD| ---------------------------------------------------------------------------
 MD|                                          Instantaneous             Averages
 MD| CPU time per MD step [s]                      0.019540             0.044475
 MD| Energy drift per atom [K]          -0.222329664703E+00  -0.111164832351E+00
 MD| Potential energy [hartree]          0.375124338065E+04   0.375124444063E+04
 MD| Kinetic energy [hartree]            0.277363475220E+00   0.273469119669E+00
 MD| Temperature [K]                             305.704551           301.412269
 MD| ***************************************************************************
 MD| Estimated peak process memory after this step [MiB]                     279

 ENERGY| Total FORCE_EVAL ( NNP ) energy [hartree]          3751.242303918054859

 MD| ***************************************************************************
 MD| Step number                                                               3
 MD| Time [fs]                                                          1.500000
 MD| Conserved quantity [hartree]                             0.375152028992E+04
 MD| ---------------------------------------------------------------------------
 MD|                                          Instantaneous             Averages
 MD| CPU time per MD step [s]                      0.019289             0.036080
 MD| Energy drift per atom [K]          -0.132095689571E+00  -0.118141784758E+00
 MD| Potential energy [hartree]          0.375124230392E+04   0.375124372839E+04
 MD| Kinetic energy [hartree]            0.282413169127E+00   0.276450469488E+00
 MD| Temperature [K]                             311.270224           304.698254
 MD| ***************************************************************************
 MD| Estimated peak process memory after this step [MiB]                     279

 ENERGY| Total FORCE_EVAL ( NNP ) energy [hartree]          3751.241508485778013

 MD| ***************************************************************************
 MD| Step number                                                               4
 MD| Time [fs]                                                          2.000000
 MD| Conserved quantity [hartree]                             0.375152036285E+04
 MD| ---------------------------------------------------------------------------
 MD|                                          Instantaneous             Averages
 MD| CPU time per MD step [s]                      0.020513             0.032188
 MD| Energy drift per atom [K]          -0.121453410877E-01  -0.916426738403E-01
 MD| Potential energy [hartree]          0.375124150849E+04   0.375124317342E+04
 MD| Kinetic energy [hartree]            0.280267226188E+00   0.277404658663E+00
 MD| Temperature [K]                             308.905008           305.749942
 MD| ***************************************************************************
 MD| Estimated peak process memory after this step [MiB]                     279

 ENERGY| Total FORCE_EVAL ( NNP ) energy [hartree]          3751.239820019276067

 MD| ***************************************************************************
 MD| Step number                                                               5
 MD| Time [fs]                                                          2.500000
 MD| Conserved quantity [hartree]                             0.375152035371E+04
 MD| ---------------------------------------------------------------------------
 MD|                                          Instantaneous             Averages
 MD| CPU time per MD step [s]                      0.019778             0.029706
 MD| Energy drift per atom [K]          -0.271762843787E-01  -0.787493959480E-01
 MD| Potential energy [hartree]          0.375123982002E+04   0.375124250274E+04
 MD| Kinetic energy [hartree]            0.278580483957E+00   0.277639823722E+00
 MD| Temperature [K]                             307.045914           306.009136
 MD| ***************************************************************************
 MD| Estimated peak process memory after this step [MiB]                     279

 ENERGY| Total FORCE_EVAL ( NNP ) energy [hartree]          3751.237165419554458

 MD| ***************************************************************************
 MD| Step number                                                               6
 MD| Time [fs]                                                          3.000000
 MD| Conserved quantity [hartree]                             0.375152024620E+04
 MD| ---------------------------------------------------------------------------
 MD|                                          Instantaneous             Averages
 MD| CPU time per MD step [s]                      0.023369             0.028650
 MD| Energy drift per atom [K]          -0.204009152745E+00  -0.996260220808E-01
 MD| Potential energy [hartree]          0.375123716542E+04   0.375124161318E+04
 MD| Kinetic energy [hartree]            0.277792763447E+00   0.277665313676E+00
 MD| Temperature [K]                             306.177704           306.037231
 MD| ***************************************************************************
 MD| Estimated peak process memory after this step [MiB]                     279

 ENERGY| Total FORCE_EVAL ( NNP ) energy [hartree]          3751.234991734751020

 MD| ***************************************************************************
 MD| Step number                                                               7
 MD| Time [fs]                                                          3.500000
 MD| Conserved quantity [hartree]                             0.375152012756E+04
 MD| ---------------------------------------------------------------------------
 MD|                                          Instantaneous             Averages
 MD| CPU time per MD step [s]                      0.025004             0.028129
 MD| Energy drift per atom [K]          -0.399123824518E+00  -0.142411422429E+00
 MD| Potential energy [hartree]          0.375123499173E+04   0.375124066726E+04
 MD| Kinetic energy [hartree]            0.281229604521E+00   0.278174498083E+00
 MD| Temperature [K]                             309.965722           306.598444
 MD| ***************************************************************************
 MD| Estimated peak process memory after this step [MiB]                     279

 ENERGY| Total FORCE_EVAL ( NNP ) energy [hartree]          3751.235026246814869

 MD| ***************************************************************************
 MD| Step number                                                               8
 MD| Time [fs]                                                          4.000000
 MD| Conserved quantity [hartree]                             0.375152010185E+04
 MD| ---------------------------------------------------------------------------
 MD|                                          Instantaneous             Averages
 MD| CPU time per MD step [s]                      0.024656             0.027695
 MD| Energy drift per atom [K]          -0.441403423925E+00  -0.179785422616E+00
 MD| Potential energy [hartree]          0.375123502625E+04   0.375123996214E+04
 MD| Kinetic energy [hartree]            0.281120999081E+00   0.278542810707E+00
 MD| Temperature [K]                             309.846019           307.004391
 MD| ***************************************************************************
 MD| Estimated peak process memory after this step [MiB]                     279

 ENERGY| Total FORCE_EVAL ( NNP ) energy [hartree]          3751.237861813367090

 MD| ***************************************************************************
 MD| Step number                                                               9
 MD| Time [fs]                                                          4.500000
 MD| Conserved quantity [hartree]                             0.375152020204E+04
 MD| ---------------------------------------------------------------------------
 MD|                                          Instantaneous             Averages
 MD| CPU time per MD step [s]                      0.028851             0.027823
 MD| Energy drift per atom [K]          -0.276632393097E+00  -0.190546197114E+00
 MD| Potential energy [hartree]          0.375123786181E+04   0.375123972877E+04
 MD| Kinetic energy [hartree]            0.277933928015E+00   0.278475157075E+00
 MD| Temperature [K]                             306.333292           306.929824
 MD| ***************************************************************************
 MD| Estimated peak process memory after this step [MiB]                     279

 ENERGY| Total FORCE_EVAL ( NNP ) energy [hartree]          3751.242182667638644

 MD| ***************************************************************************
 MD| Step number                                                              10
 MD| Time [fs]                                                          5.000000
 MD| Conserved quantity [hartree]                             0.375152035280E+04
 MD| ---------------------------------------------------------------------------
 MD|                                          Instantaneous             Averages
 MD| CPU time per MD step [s]                      0.031698             0.028211
 MD| Energy drift per atom [K]          -0.286816832263E-01  -0.174359745725E+00
 MD| Potential energy [hartree]          0.375124218267E+04   0.375123997416E+04
 MD| Kinetic energy [hartree]            0.272918083782E+00   0.277919449746E+00
 MD| Temperature [K]                             300.804928           306.317335
 MD| ***************************************************************************
 MD| Estimated peak process memory after this step [MiB]                     279

 ENERGY| Total FORCE_EVAL ( NNP ) energy [hartree]          3751.245694130886932

 MD| ***************************************************************************
 MD| Step number                                                              11
 MD| Time [fs]                                                          5.500000
 MD| Conserved quantity [hartree]                             0.375152043642E+04
 MD| ---------------------------------------------------------------------------
 MD|                                          Instantaneous             Averages
 MD| CPU time per MD step [s]                      0.024048             0.027832
 MD| Energy drift per atom [K]           0.108841535122E+00  -0.148614174739E+00
 MD| Potential energy [hartree]          0.375124569413E+04   0.375124049415E+04
 MD| Kinetic energy [hartree]            0.269879514586E+00   0.277188546549E+00
 MD| Temperature [K]                             297.455877           305.511748
 MD| ***************************************************************************
 MD| Estimated peak process memory after this step [MiB]                     279

 ENERGY| Total FORCE_EVAL ( NNP ) energy [hartree]          3751.247244502420472

 MD| ***************************************************************************
 MD| Step number                                                              12
 MD| Time [fs]                                                          6.000000
 MD| Conserved quantity [hartree]                             0.375152040988E+04
 MD| ---------------------------------------------------------------------------
 MD|                                          Instantaneous             Averages
 MD| CPU time per MD step [s]                      0.019143             0.027108
 MD| Energy drift per atom [K]           0.651965259122E-01  -0.130796616351E+00
 MD| Potential energy [hartree]          0.375124724450E+04   0.375124105668E+04
 MD| Kinetic energy [hartree]            0.272034292819E+00   0.276759025405E+00
 MD| Temperature [K]                             299.830831           305.038338
 MD| ***************************************************************************
 MD| Estimated peak process memory after this step [MiB]                     279

 ENERGY| Total FORCE_EVAL ( NNP ) energy [hartree]          3751.247379564996209

 MD| ***************************************************************************
 MD| Step number                                                              13
 MD| Time [fs]                                                          6.500000
 MD| Conserved quantity [hartree]                             0.375152033341E+04
 MD| ---------------------------------------------------------------------------
 MD|                                          Instantaneous             Averages
 MD| CPU time per MD step [s]                      0.068994             0.030330
 MD| Energy drift per atom [K]          -0.605731224793E-01  -0.125394809130E+00
 MD| Potential energy [hartree]          0.375124737956E+04   0.375124154306E+04
 MD| Kinetic energy [hartree]            0.269644499749E+00   0.276211754201E+00
 MD| Temperature [K]                             297.196848           304.435146
 MD| ***************************************************************************
 MD| Estimated peak process memory after this step [MiB]                     279

 ENERGY| Total FORCE_EVAL ( NNP ) energy [hartree]          3751.247251305488589

 MD| ***************************************************************************
 MD| Step number                                                              14
 MD| Time [fs]                                                          7.000000
 MD| Conserved quantity [hartree]                             0.375152030014E+04
 MD| ---------------------------------------------------------------------------
 MD|                                          Instantaneous             Averages
 MD| CPU time per MD step [s]                      0.057086             0.032241
 MD| Energy drift per atom [K]          -0.115294406712E+00  -0.124673351815E+00
 MD| Potential energy [hartree]          0.375124725131E+04   0.375124195079E+04
 MD| Kinetic energy [hartree]            0.267711980637E+00   0.275604627518E+00
 MD| Temperature [K]                             295.066864           303.765983
 MD| ***************************************************************************
 MD| Estimated peak process memory after this step [MiB]                     279

 ENERGY| Total FORCE_EVAL ( NNP ) energy [hartree]          3751.247292859113713

 MD| ***************************************************************************
 MD| Step number                                                              15
 MD| Time [fs]                                                          7.500000
 MD| Conserved quantity [hartree]                             0.375152033778E+04
 MD| ---------------------------------------------------------------------------
 MD|                                          Instantaneous             Averages
 MD| CPU time per MD step [s]                      0.024171             0.031703
 MD| Energy drift per atom [K]          -0.533853583258E-01  -0.119920818916E+00
 MD| Potential energy [hartree]          0.375124729286E+04   0.375124230693E+04
 MD| Kinetic energy [hartree]            0.273134618949E+00   0.275439960280E+00
 MD| Temperature [K]                             301.043589           303.584490
 MD| ***************************************************************************
 MD| Estimated peak process memory after this step [MiB]                     279

 ENERGY| Total FORCE_EVAL ( NNP ) energy [hartree]          3751.247082317289369

 MD| ***************************************************************************
 MD| Step number                                                              16
 MD| Time [fs]                                                          8.000000
 MD| Conserved quantity [hartree]                             0.375152038774E+04
 MD| ---------------------------------------------------------------------------
 MD|                                          Instantaneous             Averages
 MD| CPU time per MD step [s]                      0.025196             0.031297
 MD| Energy drift per atom [K]           0.287911390656E-01  -0.110626321542E+00
 MD| Potential energy [hartree]          0.375124708232E+04   0.375124260539E+04
 MD| Kinetic energy [hartree]            0.274144371300E+00   0.275358985968E+00
 MD| Temperature [K]                             302.156518           303.495242
 MD| ***************************************************************************
 MD| Estimated peak process memory after this step [MiB]                     279

 ENERGY| Total FORCE_EVAL ( NNP ) energy [hartree]          3751.246088113366568

 MD| ***************************************************************************
 MD| Step number                                                              17
 MD| Time [fs]                                                          8.500000
 MD| Conserved quantity [hartree]                             0.375152038128E+04
 MD| ---------------------------------------------------------------------------
 MD|                                          Instantaneous             Averages
 MD| CPU time per MD step [s]                      0.023632             0.030846
 MD| Energy drift per atom [K]           0.181640443308E-01  -0.103050417667E+00
 MD| Potential energy [hartree]          0.375124608811E+04   0.375124281026E+04
 MD| Kinetic energy [hartree]            0.273382933824E+00   0.275242747607E+00
 MD| Temperature [K]                             301.317276           303.367126
 MD| ***************************************************************************
 MD| Estimated peak process memory after this step [MiB]                     279

 ENERGY| Total FORCE_EVAL ( NNP ) energy [hartree]          3751.244408001050488

 MD| ***************************************************************************
 MD| Step number                                                              18
 MD| Time [fs]                                                          9.000000
 MD| Conserved quantity [hartree]                             0.375152033584E+04
 MD| ---------------------------------------------------------------------------
 MD|                                          Instantaneous             Averages
 MD| CPU time per MD step [s]                      0.024887             0.030515
 MD| Energy drift per atom [K]          -0.565765745452E-01  -0.100468537493E+00
 MD| Potential energy [hartree]          0.375124440800E+04   0.375124289902E+04
 MD| Kinetic energy [hartree]            0.276730214634E+00   0.275325384664E+00
 MD| Temperature [K]                             305.006583           303.458207
 MD| ***************************************************************************
 MD| Estimated peak process memory after this step [MiB]                     279

 ENERGY| Total FORCE_EVAL ( NNP ) energy [hartree]          3751.242551801452464

 MD| ***************************************************************************
 MD| Step number                                                              19
 MD| Time [fs]                                                          9.500000
 MD| Conserved quantity [hartree]                             0.375152032970E+04
 MD| ---------------------------------------------------------------------------
 MD|                                          Instantaneous             Averages
 MD| CPU time per MD step [s]                      0.028027             0.030384
 MD| Energy drift per atom [K]          -0.666697244748E-01  -0.986896525978E-01
 MD| Potential energy [hartree]          0.375124255180E+04   0.375124288075E+04
 MD| Kinetic energy [hartree]            0.279818680752E+00   0.275561873932E+00
 MD| Temperature [K]                             308.410630           303.718861
 MD| ***************************************************************************
 MD| Estimated peak process memory after this step [MiB]                     279

 ENERGY| Total FORCE_EVAL ( NNP ) energy [hartree]          3751.240433546743134

 MD| ***************************************************************************
 MD| Step number                                                              20
 MD| Time [fs]                                                         10.000000
 MD| Conserved quantity [hartree]                             0.375152038374E+04
 MD| ---------------------------------------------------------------------------
 MD|                                          Instantaneous             Averages
 MD| CPU time per MD step [s]                      0.029611             0.030345
 MD| Energy drift per atom [K]           0.222035436786E-01  -0.926449927839E-01
 MD| Potential energy [hartree]          0.375124043355E+04   0.375124275839E+04
 MD| Kinetic energy [hartree]            0.282257058290E+00   0.275896633150E+00
 MD| Temperature [K]                             311.098161           304.087826
 MD| ***************************************************************************
 MD| Estimated peak process memory after this step [MiB]                     279

 ENERGY| Total FORCE_EVAL ( NNP ) energy [hartree]          3751.237250949433019

 MD| ***************************************************************************
 MD| Step number                                                              21
 MD| Time [fs]                                                         10.500000
 MD| Conserved quantity [hartree]                             0.375152042844E+04
 MD| ---------------------------------------------------------------------------
 MD|                                          Instantaneous             Averages
 MD| CPU time per MD step [s]                      0.029768             0.030318
 MD| Energy drift per atom [K]           0.957202570516E-01  -0.836752189823E-01
 MD| Potential energy [hartree]          0.375123725095E+04   0.375124249613E+04
 MD| Kinetic energy [hartree]            0.286596610610E+00   0.276406155886E+00
 MD| Temperature [K]                             315.881130           304.649412
 MD| ***************************************************************************
 MD| Estimated peak process memory after this step [MiB]                     279

 ENERGY| Total FORCE_EVAL ( NNP ) energy [hartree]          3751.232335665828032

 MD| ***************************************************************************
 MD| Step number                                                              22
 MD| Time [fs]                                                         11.000000
 MD| Conserved quantity [hartree]                             0.375152038464E+04
 MD| ---------------------------------------------------------------------------
 MD|                                          Instantaneous             Averages
 MD| CPU time per MD step [s]                      0.022185             0.029948
 MD| Energy drift per atom [K]           0.236836626026E-01  -0.787952698193E-01
 MD| Potential energy [hartree]          0.375123233567E+04   0.375124203429E+04
 MD| Kinetic energy [hartree]            0.289784035224E+00   0.277014241310E+00
 MD| Temperature [K]                             319.394247           305.319632
 MD| ***************************************************************************
 MD| Estimated peak process memory after this step [MiB]                     279

 ENERGY| Total FORCE_EVAL ( NNP ) energy [hartree]          3751.226178544839968

 MD| ***************************************************************************
 MD| Step number                                                              23
 MD| Time [fs]                                                         11.500000
 MD| Conserved quantity [hartree]                             0.375152025608E+04
 MD| ---------------------------------------------------------------------------
 MD|                                          Instantaneous             Averages
 MD| CPU time per MD step [s]                      0.022414             0.029620
 MD| Energy drift per atom [K]          -0.187744071868E+00  -0.835321742562E-01
 MD| Potential energy [hartree]          0.375122617854E+04   0.375124134491E+04
 MD| Kinetic energy [hartree]            0.293380422209E+00   0.277725814393E+00
 MD| Temperature [K]                             323.358114           306.103914
 MD| ***************************************************************************
 MD| Estimated peak process memory after this step [MiB]                     279

 ENERGY| Total FORCE_EVAL ( NNP ) energy [hartree]          3751.220587790432546

 MD| ***************************************************************************
 MD| Step number                                                              24
 MD| Time [fs]                                                         12.000000
 MD| Conserved quantity [hartree]                             0.375152012254E+04
 MD| ---------------------------------------------------------------------------
 MD|                                          Instantaneous             Averages
 MD| CPU time per MD step [s]                      0.022894             0.029340
 MD| Energy drift per atom [K]          -0.407374495741E+00  -0.970256043181E-01
 MD| Potential energy [hartree]          0.375122058779E+04   0.375124048003E+04
 MD| Kinetic energy [hartree]            0.294378872907E+00   0.278419691831E+00
 MD| Temperature [K]                             324.458586           306.868692
 MD| ***************************************************************************
 MD| Estimated peak process memory after this step [MiB]                     279

 ENERGY| Total FORCE_EVAL ( NNP ) energy [hartree]          3751.217435034456685

 MD| ***************************************************************************
 MD| Step number                                                              25
 MD| Time [fs]                                                         12.500000
 MD| Conserved quantity [hartree]                             0.375152005874E+04
 MD| ---------------------------------------------------------------------------
 MD|                                          Instantaneous             Averages
 MD| CPU time per MD step [s]                      0.022009             0.029047
 MD| Energy drift per atom [K]          -0.512316214667E+00  -0.113637228732E+00
 MD| Potential energy [hartree]          0.375121743503E+04   0.375123955823E+04
 MD| Kinetic energy [hartree]            0.295086272883E+00   0.279086355073E+00
 MD| Temperature [K]                             325.238268           307.603475
 MD| ***************************************************************************
 MD| Estimated peak process memory after this step [MiB]                     279

 ENERGY| Total FORCE_EVAL ( NNP ) energy [hartree]          3751.217581826493188

 MD| ***************************************************************************
 MD| Step number                                                              26
 MD| Time [fs]                                                         13.000000
 MD| Conserved quantity [hartree]                             0.375152008967E+04
 MD| ---------------------------------------------------------------------------
 MD|                                          Instantaneous             Averages
 MD| CPU time per MD step [s]                      0.021860             0.028771
 MD| Energy drift per atom [K]          -0.461447156712E+00  -0.127014533654E+00
 MD| Potential energy [hartree]          0.375121758183E+04   0.375123871298E+04
 MD| Kinetic energy [hartree]            0.291648880107E+00   0.279569529113E+00
 MD| Temperature [K]                             321.449642           308.136020
 MD| ***************************************************************************
 MD| Estimated peak process memory after this step [MiB]                     279

 ENERGY| Total FORCE_EVAL ( NNP ) energy [hartree]          3751.220310113019423

 MD| ***************************************************************************
 MD| Step number                                                              27
 MD| Time [fs]                                                         13.500000
 MD| Conserved quantity [hartree]                             0.375152018656E+04
 MD| ---------------------------------------------------------------------------
 MD|                                          Instantaneous             Averages
 MD| CPU time per MD step [s]                      0.022352             0.028533
 MD| Energy drift per atom [K]          -0.302095865983E+00  -0.133499027444E+00
 MD| Potential energy [hartree]          0.375122031011E+04   0.375123803139E+04
 MD| Kinetic energy [hartree]            0.285033463058E+00   0.279771897037E+00
 MD| Temperature [K]                             314.158260           308.359066
 MD| ***************************************************************************
 MD| Estimated peak process memory after this step [MiB]                     279

 ENERGY| Total FORCE_EVAL ( NNP ) energy [hartree]          3751.224001526073152

 MD| ***************************************************************************
 MD| Step number                                                              28
 MD| Time [fs]                                                         14.000000
 MD| Conserved quantity [hartree]                             0.375152029390E+04
 MD| ---------------------------------------------------------------------------
 MD|                                          Instantaneous             Averages
 MD| CPU time per MD step [s]                      0.022687             0.028324
 MD| Energy drift per atom [K]          -0.125548150459E+00  -0.133215067552E+00
 MD| Potential energy [hartree]          0.375122400153E+04   0.375123753033E+04
 MD| Kinetic energy [hartree]            0.279126569405E+00   0.279748849621E+00
 MD| Temperature [K]                             307.647798           308.333663
 MD| ***************************************************************************
 MD| Estimated peak process memory after this step [MiB]                     279

 ENERGY| Total FORCE_EVAL ( NNP ) energy [hartree]          3751.226910952084381

 MD| ***************************************************************************
 MD| Step number                                                              29
 MD| Time [fs]                                                         14.500000
 MD| Conserved quantity [hartree]                             0.375152034722E+04
 MD| ---------------------------------------------------------------------------
 MD|                                          Instantaneous             Averages
 MD| CPU time per MD step [s]                      0.021529             0.028090
 MD| Energy drift per atom [K]          -0.378568243767E-01  -0.129926852270E+00
 MD| Potential energy [hartree]          0.375122691095E+04   0.375123716414E+04
 MD| Kinetic energy [hartree]            0.270238512382E+00   0.279420906958E+00
 MD| Temperature [K]                             297.851557           307.972211
 MD| ***************************************************************************
 MD| Estimated peak process memory after this step [MiB]                     279

 ENERGY| Total FORCE_EVAL ( NNP ) energy [hartree]          3751.228108609771880

 MD| ***************************************************************************
 MD| Step number                                                              30
 MD| Time [fs]                                                         15.000000
 MD| Conserved quantity [hartree]                             0.375152031290E+04
 MD| ---------------------------------------------------------------------------
 MD|                                          Instantaneous             Averages
 MD| CPU time per MD step [s]                      0.055816             0.029014
 MD| Energy drift per atom [K]          -0.943056702773E-01  -0.128739479537E+00
 MD| Potential energy [hartree]          0.375122810861E+04   0.375123686229E+04
 MD| Kinetic energy [hartree]            0.271354856372E+00   0.279152038605E+00
 MD| Temperature [K]                             299.081969           307.675870
 MD| ***************************************************************************
 MD| Estimated peak process memory after this step [MiB]                     279

 ENERGY| Total FORCE_EVAL ( NNP ) energy [hartree]          3751.228170554308690

 MD| ***************************************************************************
 MD| Step number                                                              31
 MD| Time [fs]                                                         15.500000
 MD| Conserved quantity [hartree]                             0.375152022426E+04
 MD| ---------------------------------------------------------------------------
 MD|                                          Instantaneous             Averages
 MD| CPU time per MD step [s]                      0.027151             0.028954
 MD| Energy drift per atom [K]          -0.240091436574E+00  -0.132331478151E+00
 MD| Potential energy [hartree]          0.375122817055E+04   0.375123658191E+04
 MD| Kinetic energy [hartree]            0.267383791676E+00   0.278772417736E+00
 MD| Temperature [K]                             294.705140           307.257459
 MD| ***************************************************************************
 MD| Estimated peak process memory after this step [MiB]                     279

 ENERGY| Total FORCE_EVAL ( NNP ) energy [hartree]          3751.228520622030373

 MD| ***************************************************************************
 MD| Step number                                                              32
 MD| Time [fs]                                                         16.000000
 MD| Conserved quantity [hartree]                             0.375152015457E+04
 MD| ---------------------------------------------------------------------------
 MD|                                          Instantaneous             Averages
 MD| CPU time per MD step [s]                      0.021459             0.028720
 MD| Energy drift per atom [K]          -0.354697532466E+00  -0.139280417348E+00
 MD| Potential energy [hartree]          0.375122852062E+04   0.375123633000E+04
 MD| Kinetic energy [hartree]            0.266200549234E+00   0.278379546846E+00
 MD| Temperature [K]                             293.400994           306.824445
 MD| ***************************************************************************
 MD| Estimated peak process memory after this step [MiB]                     279

 ENERGY| Total FORCE_EVAL ( NNP ) energy [hartree]          3751.230169422859490

 MD| ***************************************************************************
 MD| Step number                                                              33
 MD| Time [fs]                                                         16.500000
 MD| Conserved quantity [hartree]                             0.375152014272E+04
 MD| ---------------------------------------------------------------------------
 MD|                                          Instantaneous             Averages
 MD| CPU time per MD step [s]                      0.022406             0.028528
 MD| Energy drift per atom [K]          -0.374188628068E+00  -0.146398847976E+00
 MD| Potential energy [hartree]          0.375123016942E+04   0.375123614331E+04
 MD| Kinetic energy [hartree]            0.264314347850E+00   0.277953328694E+00
 MD| Temperature [K]                             291.322060           306.354675
 MD| ***************************************************************************
 MD| Estimated peak process memory after this step [MiB]                     279

 ENERGY| Total FORCE_EVAL ( NNP ) energy [hartree]          3751.233182686112286

 MD| ***************************************************************************
 MD| Step number                                                              34
 MD| Time [fs]                                                         17.000000
 MD| Conserved quantity [hartree]                             0.375152016794E+04
 MD| ---------------------------------------------------------------------------
 MD|                                          Instantaneous             Averages
 MD| CPU time per MD step [s]                      0.022089             0.028339
 MD| Energy drift per atom [K]          -0.332713646875E+00  -0.151878695003E+00
 MD| Potential energy [hartree]          0.375123318269E+04   0.375123605624E+04
 MD| Kinetic energy [hartree]            0.257798135548E+00   0.277360528896E+00
 MD| Temperature [K]                             284.140019           305.701303
 MD| ***************************************************************************
 MD| Estimated peak process memory after this step [MiB]                     279

 ENERGY| Total FORCE_EVAL ( NNP ) energy [hartree]          3751.236951738369044

 MD| ***************************************************************************
 MD| Step number                                                              35
 MD| Time [fs]                                                         17.500000
 MD| Conserved quantity [hartree]                             0.375152019915E+04
 MD| ---------------------------------------------------------------------------
 MD|                                          Instantaneous             Averages
 MD| CPU time per MD step [s]                      0.020997             0.028129
 MD| Energy drift per atom [K]          -0.281387506271E+00  -0.155578946753E+00
 MD| Potential energy [hartree]          0.375123695174E+04   0.375123608182E+04
 MD| Kinetic energy [hartree]            0.250567716223E+00   0.276595019962E+00
 MD| Temperature [K]                             276.170794           304.857574
 MD| ***************************************************************************
 MD| Estimated peak process memory after this step [MiB]                     279

 ENERGY| Total FORCE_EVAL ( NNP ) energy [hartree]          3751.240814647856496

 MD| ***************************************************************************
 MD| Step number                                                              36
 MD| Time [fs]                                                         18.000000
 MD| Conserved quantity [hartree]                             0.375152024226E+04
 MD| ---------------------------------------------------------------------------
 MD|                                          Instantaneous             Averages
 MD| CPU time per MD step [s]                      0.020685             0.027922
 MD| Energy drift per atom [K]          -0.210481783227E+00  -0.157104025544E+00
 MD| Potential energy [hartree]          0.375124081465E+04   0.375123621329E+04
 MD| Kinetic energy [hartree]            0.245023420251E+00   0.275718031082E+00
 MD| Temperature [K]                             270.059980           303.890974
 MD| ***************************************************************************
 MD| Estimated peak process memory after this step [MiB]                     279

 ENERGY| Total FORCE_EVAL ( NNP ) energy [hartree]          3751.243915686763557

 MD| ***************************************************************************
 MD| Step number                                                              37
 MD| Time [fs]                                                         18.500000
 MD| Conserved quantity [hartree]                             0.375152030867E+04
 MD| ---------------------------------------------------------------------------
 MD|                                          Instantaneous             Averages
 MD| CPU time per MD step [s]                      0.021801             0.027757
 MD| Energy drift per atom [K]          -0.101264728941E+00  -0.155594855366E+00
 MD| Potential energy [hartree]          0.375124391569E+04   0.375123642146E+04
 MD| Kinetic energy [hartree]            0.241054154546E+00   0.274781169554E+00
 MD| Temperature [K]                             265.685134           302.858384
 MD| ***************************************************************************
 MD| Estimated peak process memory after this step [MiB]                     279

 ENERGY| Total FORCE_EVAL ( NNP ) energy [hartree]          3751.245148684267406

 MD| ***************************************************************************
 MD| Step number                                                              38
 MD| Time [fs]                                                         19.000000
 MD| Conserved quantity [hartree]                             0.375152036516E+04
 MD| ---------------------------------------------------------------------------
 MD|                                          Instantaneous             Averages
 MD| CPU time per MD step [s]                      0.022170             0.027610
 MD| Energy drift per atom [K]          -0.835029211706E-02  -0.151719998438E+00
 MD| Potential energy [hartree]          0.375124514868E+04   0.375123665113E+04
 MD| Kinetic energy [hartree]            0.236939438828E+00   0.273785334534E+00
 MD| Temperature [K]                             261.149975           301.760794
 MD| ***************************************************************************
 MD| Estimated peak process memory after this step [MiB]                     279

 ENERGY| Total FORCE_EVAL ( NNP ) energy [hartree]          3751.243454195544473

 MD| ***************************************************************************
 MD| Step number                                                              39
 MD| Time [fs]                                                         19.500000
 MD| Conserved quantity [hartree]                             0.375152035155E+04
 MD| ---------------------------------------------------------------------------
 MD|                                          Instantaneous             Averages
 MD| CPU time per MD step [s]                      0.021077             0.027442
 MD| Energy drift per atom [K]          -0.307421454615E-01  -0.148618002208E+00
 MD| Potential energy [hartree]          0.375124345420E+04   0.375123682556E+04
 MD| Kinetic energy [hartree]            0.235994656739E+00   0.272816342796E+00
 MD| Temperature [K]                             260.108655           300.692791
 MD| ***************************************************************************
 MD| Estimated peak process memory after this step [MiB]                     279

 ENERGY| Total FORCE_EVAL ( NNP ) energy [hartree]          3751.238848631402107

 MD| ***************************************************************************
 MD| Step number                                                              40
 MD| Time [fs]                                                         20.000000
 MD| Conserved quantity [hartree]                             0.375152025562E+04
 MD| ---------------------------------------------------------------------------
 MD|                                          Instantaneous             Averages
 MD| CPU time per MD step [s]                      0.019994             0.027256
 MD| Energy drift per atom [K]          -0.188500582613E+00  -0.149615066718E+00
 MD| Potential energy [hartree]          0.375123884863E+04   0.375123687614E+04
 MD| Kinetic energy [hartree]            0.239007532999E+00   0.271971122551E+00
 MD| Temperature [K]                             263.429388           299.761206
 MD| ***************************************************************************
 MD| Estimated peak process memory after this step [MiB]                     279

 ENERGY| Total FORCE_EVAL ( NNP ) energy [hartree]          3751.232805718862892

 MD| ***************************************************************************
 MD| Step number                                                              41
 MD| Time [fs]                                                         20.500000
 MD| Conserved quantity [hartree]                             0.375152012764E+04
 MD| ---------------------------------------------------------------------------
 MD|                                          Instantaneous             Averages
 MD| CPU time per MD step [s]                      0.062943             0.028127
 MD| Energy drift per atom [K]          -0.398999711992E+00  -0.155697619042E+00
 MD| Potential energy [hartree]          0.375123280572E+04   0.375123677686E+04
 MD| Kinetic energy [hartree]            0.244882751672E+00   0.271310430578E+00
 MD| Temperature [K]                             269.904938           299.033004
 MD| ***************************************************************************
 MD| Estimated peak process memory after this step [MiB]                     279

 ENERGY| Total FORCE_EVAL ( NNP ) energy [hartree]          3751.227258797367995

 MD| ***************************************************************************
 MD| Step number                                                              42
 MD| Time [fs]                                                         21.000000
 MD| Conserved quantity [hartree]                             0.375152001884E+04
 MD| ---------------------------------------------------------------------------
 MD|                                          Instantaneous             Averages
 MD| CPU time per MD step [s]                      0.105209             0.029962
 MD| Energy drift per atom [K]          -0.577926399886E+00  -0.165750685252E+00
 MD| Potential energy [hartree]          0.375122725880E+04   0.375123655024E+04
 MD| Kinetic energy [hartree]            0.250301836949E+00   0.270810225968E+00
 MD| Temperature [K]                             275.877747           298.481688
 MD| ***************************************************************************
 MD| Estimated peak process memory after this step [MiB]                     279

 ENERGY| Total FORCE_EVAL ( NNP ) energy [hartree]          3751.223859346199788

 MD| ***************************************************************************
 MD| Step number                                                              43
 MD| Time [fs]                                                         21.500000
 MD| Conserved quantity [hartree]                             0.375151995888E+04
 MD| ---------------------------------------------------------------------------
 MD|                                          Instantaneous             Averages
 MD| CPU time per MD step [s]                      0.091861             0.031401
 MD| Energy drift per atom [K]          -0.676539240083E+00  -0.177629488853E+00
 MD| Potential energy [hartree]          0.375122385935E+04   0.375123625510E+04
 MD| Kinetic energy [hartree]            0.254121286526E+00   0.270422111098E+00
 MD| Temperature [K]                             280.087469           298.053916
 MD| ***************************************************************************
 MD| Estimated peak process memory after this step [MiB]                     279

 ENERGY| Total FORCE_EVAL ( NNP ) energy [hartree]          3751.223502513586482

 MD| ***************************************************************************
 MD| Step number                                                              44
 MD| Time [fs]                                                         22.000000
 MD| Conserved quantity [hartree]                             0.375151997027E+04
 MD| ---------------------------------------------------------------------------
 MD|                                          Instantaneous             Averages
 MD| CPU time per MD step [s]                      0.045644             0.031725
 MD| Energy drift per atom [K]          -0.657817985131E+00  -0.188542863769E+00
 MD| Potential energy [hartree]          0.375122350251E+04   0.375123596527E+04
 MD| Kinetic energy [hartree]            0.253026304593E+00   0.270026751859E+00
 MD| Temperature [K]                             278.880601           297.618159
 MD| ***************************************************************************
 MD| Estimated peak process memory after this step [MiB]                     279

 ENERGY| Total FORCE_EVAL ( NNP ) energy [hartree]          3751.225903527401897

 MD| ***************************************************************************
 MD| Step number                                                              45
 MD| Time [fs]                                                         22.500000
 MD| Conserved quantity [hartree]                             0.375152005937E+04
 MD| ---------------------------------------------------------------------------
 MD|                                          Instantaneous             Averages
 MD| CPU time per MD step [s]                      0.085432             0.032919
 MD| Energy drift per atom [K]          -0.511270313452E+00  -0.195714584873E+00
 MD| Potential energy [hartree]          0.375122590353E+04   0.375123574168E+04
 MD| Kinetic energy [hartree]            0.248192939993E+00   0.269541556040E+00
 MD| Temperature [K]                             273.553362           297.083386
 MD| ***************************************************************************
 MD| Estimated peak process memory after this step [MiB]                     279

 ENERGY| Total FORCE_EVAL ( NNP ) energy [hartree]          3751.229428841964818

 MD| ***************************************************************************
 MD| Step number                                                              46
 MD| Time [fs]                                                         23.000000
 MD| Conserved quantity [hartree]                             0.375152018751E+04
 MD| ---------------------------------------------------------------------------
 MD|                                          Instantaneous             Averages
 MD| CPU time per MD step [s]                      0.021591             0.032672
 MD| Energy drift per atom [K]          -0.300532772278E+00  -0.197993241121E+00
 MD| Potential energy [hartree]          0.375122942884E+04   0.375123560444E+04
 MD| Kinetic energy [hartree]            0.240518770731E+00   0.268910625924E+00
 MD| Temperature [K]                             265.095044           296.387987
 MD| ***************************************************************************
 MD| Estimated peak process memory after this step [MiB]                     279

 ENERGY| Total FORCE_EVAL ( NNP ) energy [hartree]          3751.232050230707955

 MD| ***************************************************************************
 MD| Step number                                                              47
 MD| Time [fs]                                                         23.500000
 MD| Conserved quantity [hartree]                             0.375152028364E+04
 MD| ---------------------------------------------------------------------------
 MD|                                          Instantaneous             Averages
 MD| CPU time per MD step [s]                      0.019421             0.032390
 MD| Energy drift per atom [K]          -0.142430618362E+00  -0.196811057658E+00
 MD| Potential energy [hartree]          0.375123205023E+04   0.375123552882E+04
 MD| Kinetic energy [hartree]            0.243295282118E+00   0.268365618609E+00
 MD| Temperature [K]                             268.155260           295.787290
 MD| ***************************************************************************
 MD| Estimated peak process memory after this step [MiB]                     279

 ENERGY| Total FORCE_EVAL ( NNP ) energy [hartree]          3751.232441499686502

 MD| ***************************************************************************
 MD| Step number                                                              48
 MD| Time [fs]                                                         24.000000
 MD| Conserved quantity [hartree]                             0.375152028727E+04
 MD| ---------------------------------------------------------------------------
 MD|                                          Instantaneous             Averages
 MD| CPU time per MD step [s]                      0.019776             0.032128
 MD| Energy drift per atom [K]          -0.136450032825E+00  -0.195553536307E+00
 MD| Potential energy [hartree]          0.375123244150E+04   0.375123546450E+04
 MD| Kinetic energy [hartree]            0.239469677861E+00   0.267763619844E+00
 MD| Temperature [K]                             263.938755           295.123779
 MD| ***************************************************************************
 MD| Estimated peak process memory after this step [MiB]                     279

 ENERGY| Total FORCE_EVAL ( NNP ) energy [hartree]          3751.230581291658382

 MD| ***************************************************************************
 MD| Step number                                                              49
 MD| Time [fs]                                                         24.500000
 MD| Conserved quantity [hartree]                             0.375152019335E+04
 MD| ---------------------------------------------------------------------------
 MD|                                          Instantaneous             Averages
 MD| CPU time per MD step [s]                      0.020105             0.031882
 MD| Energy drift per atom [K]          -0.290929314386E+00  -0.197499980758E+00
 MD| Potential energy [hartree]          0.375123058129E+04   0.375123536484E+04
 MD| Kinetic energy [hartree]            0.243183098947E+00   0.267261976560E+00
 MD| Temperature [K]                             268.031614           294.570878
 MD| ***************************************************************************
 MD| Estimated peak process memory after this step [MiB]                     279

 ENERGY| Total FORCE_EVAL ( NNP ) energy [hartree]          3751.227858252343140

 MD| ***************************************************************************
 MD| Step number                                                              50
 MD| Time [fs]                                                         25.000000
 MD| Conserved quantity [hartree]                             0.375152006644E+04
 MD| ---------------------------------------------------------------------------
 MD|                                          Instantaneous             Averages
 MD| CPU time per MD step [s]                      0.021708             0.031679
 MD| Energy drift per atom [K]          -0.499640435699E+00  -0.203542789856E+00
 MD| Potential energy [hartree]          0.375122785825E+04   0.375123521471E+04
 MD| Kinetic energy [hartree]            0.242793924757E+00   0.266772615524E+00
 MD| Temperature [K]                             267.602674           294.031514
 MD| ***************************************************************************
 MD| Estimated peak process memory after this step [MiB]                     279

 ENERGY| Total FORCE_EVAL ( NNP ) energy [hartree]          3751.226155164119973

 MD| ***************************************************************************
 MD| Step number                                                              51
 MD| Time [fs]                                                         25.500000
 MD| Conserved quantity [hartree]                             0.375151998820E+04
 MD| ---------------------------------------------------------------------------
 MD|                                          Instantaneous             Averages
 MD| CPU time per MD step [s]                      0.024300             0.031534
 MD| Energy drift per atom [K]          -0.628318373980E+00  -0.211871722878E+00
 MD| Potential energy [hartree]          0.375122615516E+04   0.375123503707E+04
 MD| Kinetic energy [hartree]            0.244280314892E+00   0.266331590021E+00
 MD| Temperature [K]                             269.240944           293.545424
 MD| ***************************************************************************
 MD| Estimated peak process memory after this step [MiB]                     279

 ENERGY| Total FORCE_EVAL ( NNP ) energy [hartree]          3751.226768848579468

 MD| ***************************************************************************
 MD| Step number                                                              52
 MD| Time [fs]                                                         26.000000
 MD| Conserved quantity [hartree]                             0.375151999370E+04
 MD| ---------------------------------------------------------------------------
 MD|                                          Instantaneous             Averages
 MD| CPU time per MD step [s]                      0.025191             0.031412
 MD| Energy drift per atom [K]          -0.619276496716E+00  -0.219706430068E+00
 MD| Potential energy [hartree]          0.375122676885E+04   0.375123487807E+04
 MD| Kinetic energy [hartree]            0.247359708918E+00   0.265966746154E+00
 MD| Temperature [K]                             272.634991           293.143301
 MD| ***************************************************************************
 MD| Estimated peak process memory after this step [MiB]                     279

 ENERGY| Total FORCE_EVAL ( NNP ) energy [hartree]          3751.229862006563508

 MD| ***************************************************************************
 MD| Step number                                                              53
 MD| Time [fs]                                                         26.500000
 MD| Conserved quantity [hartree]                             0.375152006910E+04
 MD| ---------------------------------------------------------------------------
 MD|                                          Instantaneous             Averages
 MD| CPU time per MD step [s]                      0.032044             0.031424
 MD| Energy drift per atom [K]          -0.495267972960E+00  -0.224905704462E+00
 MD| Potential energy [hartree]          0.375122986201E+04   0.375123478343E+04
 MD| Kinetic energy [hartree]            0.245131588282E+00   0.265573629968E+00
 MD| Temperature [K]                             270.179201           292.710016
 MD| ***************************************************************************
 MD| Estimated peak process memory after this step [MiB]                     279

 ENERGY| Total FORCE_EVAL ( NNP ) energy [hartree]          3751.234285238603206

 MD| ***************************************************************************
 MD| Step number                                                              54
 MD| Time [fs]                                                         27.000000
 MD| Conserved quantity [hartree]                             0.375152018243E+04
 MD| ---------------------------------------------------------------------------
 MD|                                          Instantaneous             Averages
 MD| CPU time per MD step [s]                      0.023327             0.031274
 MD| Energy drift per atom [K]          -0.308876488818E+00  -0.226460718987E+00
 MD| Potential energy [hartree]          0.375123428524E+04   0.375123477420E+04
 MD| Kinetic energy [hartree]            0.242020777478E+00   0.265137466033E+00
 MD| Temperature [K]                             266.750526           292.229284
 MD| ***************************************************************************
 MD| Estimated peak process memory after this step [MiB]                     279

 ENERGY| Total FORCE_EVAL ( NNP ) energy [hartree]          3751.238297477897959

 MD| ***************************************************************************
 MD| Step number                                                              55
 MD| Time [fs]                                                         27.500000
 MD| Conserved quantity [hartree]                             0.375152029893E+04
 MD| ---------------------------------------------------------------------------
 MD|                                          Instantaneous             Averages
 MD| CPU time per MD step [s]                      0.018887             0.031049
 MD| Energy drift per atom [K]          -0.117274969550E+00  -0.224475523543E+00
 MD| Potential energy [hartree]          0.375123829748E+04   0.375123483826E+04
 MD| Kinetic energy [hartree]            0.242317583196E+00   0.264722559072E+00
 MD| Temperature [K]                             267.077660           291.771982
 MD| ***************************************************************************
 MD| Estimated peak process memory after this step [MiB]                     279

 ENERGY| Total FORCE_EVAL ( NNP ) energy [hartree]          3751.240321243801645

 MD| ***************************************************************************
 MD| Step number                                                              56
 MD| Time [fs]                                                         28.000000
 MD| Conserved quantity [hartree]                             0.375152037612E+04
 MD| ---------------------------------------------------------------------------
 MD|                                          Instantaneous             Averages
 MD| CPU time per MD step [s]                      0.018905             0.030832
 MD| Energy drift per atom [K]           0.966528940970E-02  -0.220294437597E+00
 MD| Potential energy [hartree]          0.375124032124E+04   0.375123493617E+04
 MD| Kinetic energy [hartree]            0.241373866942E+00   0.264305618141E+00
 MD| Temperature [K]                             266.037514           291.312438
 MD| ***************************************************************************
 MD| Estimated peak process memory after this step [MiB]                     279

 ENERGY| Total FORCE_EVAL ( NNP ) energy [hartree]          3751.239249948014276

 MD| ***************************************************************************
 MD| Step number                                                              57
 MD| Time [fs]                                                         28.500000
 MD| Conserved quantity [hartree]                             0.375152037836E+04
 MD| ---------------------------------------------------------------------------
 MD|                                          Instantaneous             Averages
 MD| CPU time per MD step [s]                      0.018733             0.030620
 MD| Energy drift per atom [K]           0.133502670155E-01  -0.216195407692E+00
 MD| Potential energy [hartree]          0.375123924995E+04   0.375123501185E+04
 MD| Kinetic energy [hartree]            0.237334463996E+00   0.263832439998E+00
 MD| Temperature [K]                             261.585364           290.790910
 MD| ***************************************************************************
 MD| Estimated peak process memory after this step [MiB]                     279

 ENERGY| Total FORCE_EVAL ( NNP ) energy [hartree]          3751.234920766152300

 MD| ***************************************************************************
 MD| Step number                                                              58
 MD| Time [fs]                                                         29.000000
 MD| Conserved quantity [hartree]                             0.375152030577E+04
 MD| ---------------------------------------------------------------------------
 MD|                                          Instantaneous             Averages
 MD| CPU time per MD step [s]                      0.024043             0.030506
 MD| Energy drift per atom [K]          -0.106033154069E+00  -0.214296058491E+00
 MD| Potential energy [hartree]          0.375123492077E+04   0.375123501028E+04
 MD| Kinetic energy [hartree]            0.239560828551E+00   0.263413963939E+00
 MD| Temperature [K]                             264.039219           290.329674
 MD| ***************************************************************************
 MD| Estimated peak process memory after this step [MiB]                     279

 ENERGY| Total FORCE_EVAL ( NNP ) energy [hartree]          3751.228310041027271

 MD| ***************************************************************************
 MD| Step number                                                              59
 MD| Time [fs]                                                         29.500000
 MD| Conserved quantity [hartree]                             0.375152018583E+04
 MD| ---------------------------------------------------------------------------
 MD|                                          Instantaneous             Averages
 MD| CPU time per MD step [s]                      0.026303             0.030435
 MD| Energy drift per atom [K]          -0.303295756269E+00  -0.215804527945E+00
 MD| Potential energy [hartree]          0.375122831004E+04   0.375123489672E+04
 MD| Kinetic energy [hartree]            0.243153177876E+00   0.263070560785E+00
[...]

 MD| ***************************************************************************
 MD| Step number                                                              91
 MD| Time [fs]                                                         45.500000
 MD| Conserved quantity [hartree]                             0.375152031993E+04
 MD| ---------------------------------------------------------------------------
 MD|                                          Instantaneous             Averages
 MD| CPU time per MD step [s]                      0.031913             0.028966
 MD| Energy drift per atom [K]          -0.827322862464E-01  -0.275070773274E+00
 MD| Potential energy [hartree]          0.375124085564E+04   0.375123103835E+04
 MD| Kinetic energy [hartree]            0.250032584507E+00   0.260402641955E+00
 MD| Temperature [K]                             275.580982           287.010655
 MD| ***************************************************************************
 MD| Estimated peak process memory after this step [MiB]                     279

 ENERGY| Total FORCE_EVAL ( NNP ) energy [hartree]          3751.244849109383722

 MD| ***************************************************************************
 MD| Step number                                                              92
 MD| Time [fs]                                                         46.000000
 MD| Conserved quantity [hartree]                             0.375152032700E+04
 MD| ---------------------------------------------------------------------------
 MD|                                          Instantaneous             Averages
 MD| CPU time per MD step [s]                      0.018175             0.028848
 MD| Energy drift per atom [K]          -0.711183403572E-01  -0.272853899003E+00
 MD| Potential energy [hartree]          0.375124484911E+04   0.375123118847E+04
 MD| Kinetic energy [hartree]            0.248277351974E+00   0.260270845325E+00
 MD| Temperature [K]                             273.646399           286.865391
 MD| ***************************************************************************
 MD| Estimated peak process memory after this step [MiB]                     279

 ENERGY| Total FORCE_EVAL ( NNP ) energy [hartree]          3751.247320397234489

 MD| ***************************************************************************
 MD| Step number                                                              93
 MD| Time [fs]                                                         46.500000
 MD| Conserved quantity [hartree]                             0.375152034208E+04
 MD| ---------------------------------------------------------------------------
 MD|                                          Instantaneous             Averages
 MD| CPU time per MD step [s]                      0.017818             0.028730
 MD| Energy drift per atom [K]          -0.463072803662E-01  -0.270417913856E+00
 MD| Potential energy [hartree]          0.375124732040E+04   0.375123136193E+04
 MD| Kinetic energy [hartree]            0.245893869821E+00   0.260116254190E+00
 MD| Temperature [K]                             271.019372           286.695004
 MD| ***************************************************************************
 MD| Estimated peak process memory after this step [MiB]                     279

 ENERGY| Total FORCE_EVAL ( NNP ) energy [hartree]          3751.248158009560029

 MD| ***************************************************************************
 MD| Step number                                                              94
 MD| Time [fs]                                                         47.000000
 MD| Conserved quantity [hartree]                             0.375152037081E+04
 MD| ---------------------------------------------------------------------------
 MD|                                          Instantaneous             Averages
 MD| CPU time per MD step [s]                      0.059059             0.029052
 MD| Energy drift per atom [K]           0.939722693614E-03  -0.267531130489E+00
 MD| Potential energy [hartree]          0.375124815801E+04   0.375123154061E+04
 MD| Kinetic energy [hartree]            0.245769455752E+00   0.259963628675E+00
 MD| Temperature [K]                             270.882246           286.526783
 MD| ***************************************************************************
 MD| Estimated peak process memory after this step [MiB]                     279

 ENERGY| Total FORCE_EVAL ( NNP ) energy [hartree]          3751.247067243979927

 MD| ***************************************************************************
 MD| Step number                                                              95
 MD| Time [fs]                                                         47.500000
 MD| Conserved quantity [hartree]                             0.375152036688E+04
 MD| ---------------------------------------------------------------------------
 MD|                                          Instantaneous             Averages
 MD| CPU time per MD step [s]                      0.028581             0.029047
 MD| Energy drift per atom [K]          -0.552867016120E-02  -0.264773209854E+00
 MD| Potential energy [hartree]          0.375124706724E+04   0.375123170405E+04
 MD| Kinetic energy [hartree]            0.248663003631E+00   0.259844674727E+00
 MD| Temperature [K]                             274.071457           286.395674
 MD| ***************************************************************************
 MD| Estimated peak process memory after this step [MiB]                     279

 ENERGY| Total FORCE_EVAL ( NNP ) energy [hartree]          3751.244245843482531

 MD| ***************************************************************************
 MD| Step number                                                              96
 MD| Time [fs]                                                         48.000000
 MD| Conserved quantity [hartree]                             0.375152030401E+04
 MD| ---------------------------------------------------------------------------
 MD|                                          Instantaneous             Averages
 MD| CPU time per MD step [s]                      0.025275             0.029008
 MD| Energy drift per atom [K]          -0.108916392894E+00  -0.263149701344E+00
 MD| Potential energy [hartree]          0.375124424584E+04   0.375123183469E+04
 MD| Kinetic energy [hartree]            0.252632914974E+00   0.259769552230E+00
 MD| Temperature [K]                             278.447015           286.312876
 MD| ***************************************************************************
 MD| Estimated peak process memory after this step [MiB]                     279

 ENERGY| Total FORCE_EVAL ( NNP ) energy [hartree]          3751.240736777348502

 MD| ***************************************************************************
 MD| Step number                                                              97
 MD| Time [fs]                                                         48.500000
 MD| Conserved quantity [hartree]                             0.375152020859E+04
 MD| ---------------------------------------------------------------------------
 MD|                                          Instantaneous             Averages
 MD| CPU time per MD step [s]                      0.024205             0.028959
 MD| Energy drift per atom [K]          -0.265857256629E+00  -0.263177614285E+00
 MD| Potential energy [hartree]          0.375124073678E+04   0.375123192647E+04
 MD| Kinetic energy [hartree]            0.255912071152E+00   0.259729784384E+00
 MD| Temperature [K]                             282.061236           286.269044
 MD| ***************************************************************************
 MD| Estimated peak process memory after this step [MiB]                     279

 ENERGY| Total FORCE_EVAL ( NNP ) energy [hartree]          3751.237981023978591

 MD| ***************************************************************************
 MD| Step number                                                              98
 MD| Time [fs]                                                         49.000000
 MD| Conserved quantity [hartree]                             0.375152013440E+04
 MD| ---------------------------------------------------------------------------
 MD|                                          Instantaneous             Averages
 MD| CPU time per MD step [s]                      0.025185             0.028920
 MD| Energy drift per atom [K]          -0.387873102241E+00  -0.264450017223E+00
 MD| Potential energy [hartree]          0.375123798102E+04   0.375123198825E+04
 MD| Kinetic energy [hartree]            0.260902503072E+00   0.259741750901E+00
 MD| Temperature [K]                             287.561592           286.282234
 MD| ***************************************************************************
 MD| Estimated peak process memory after this step [MiB]                     279

 ENERGY| Total FORCE_EVAL ( NNP ) energy [hartree]          3751.236955471542387

 MD| ***************************************************************************
 MD| Step number                                                              99
 MD| Time [fs]                                                         49.500000
 MD| Conserved quantity [hartree]                             0.375152012725E+04
 MD| ---------------------------------------------------------------------------
 MD|                                          Instantaneous             Averages
 MD| CPU time per MD step [s]                      0.016728             0.028797
 MD| Energy drift per atom [K]          -0.399635803365E+00  -0.265815530215E+00
 MD| Potential energy [hartree]          0.375123695547E+04   0.375123203842E+04
 MD| Kinetic energy [hartree]            0.261902840487E+00   0.259763580089E+00
 MD| Temperature [K]                             288.664144           286.306293
 MD| ***************************************************************************
 MD| Estimated peak process memory after this step [MiB]                     279

 ENERGY| Total FORCE_EVAL ( NNP ) energy [hartree]          3751.237610057700749

 MD| ***************************************************************************
 MD| Step number                                                             100
 MD| Time [fs]                                                         50.000000
 MD| Conserved quantity [hartree]                             0.375152020250E+04
 MD| ---------------------------------------------------------------------------
 MD|                                          Instantaneous             Averages
 MD| CPU time per MD step [s]                      0.016113             0.028670
 MD| Energy drift per atom [K]          -0.275871582648E+00  -0.265916090739E+00
 MD| Potential energy [hartree]          0.375123761006E+04   0.375123209414E+04
 MD| Kinetic energy [hartree]            0.261854373974E+00   0.259784488028E+00
 MD| Temperature [K]                             288.610725           286.329338
 MD| ***************************************************************************
 MD| Estimated peak process memory after this step [MiB]                     279

 -------------------------------------------------------------------------------
 -                                                                             -
 -                                DBCSR STATISTICS                             -
 -                                                                             -
 -------------------------------------------------------------------------------
 COUNTER                                    TOTAL       BLAS       SMM       ACC
 flops inhomo. stacks                           0       0.0%      0.0%      0.0%
 flops total                         0.000000E+00       0.0%      0.0%      0.0%
 flops max/rank                      0.000000E+00       0.0%      0.0%      0.0%
 matmuls inhomo. stacks                         0       0.0%      0.0%      0.0%
 matmuls total                                  0       0.0%      0.0%      0.0%
 number of processed stacks                     0       0.0%      0.0%      0.0%
 average stack size                                     0.0       0.0       0.0
 marketing flops                     0.000000E+00
 -------------------------------------------------------------------------------
 -                                                                             -
 -                      DBCSR MESSAGE PASSING PERFORMANCE                      -
 -                                                                             -
 -------------------------------------------------------------------------------
 ROUTINE             CALLS      AVE VOLUME [Bytes]
 MP_Bcast                1                     12.
 MP_Allreduce           19                     21.
 -------------------------------------------------------------------------------

 MEMORY| Estimated peak process memory [MiB]                                 279

 -------------------------------------------------------------------------------
 -                                                                             -
 -                         MESSAGE PASSING PERFORMANCE                         -
 -                                                                             -
 -------------------------------------------------------------------------------

 ROUTINE             CALLS      AVE VOLUME [Bytes]
 MP_Bcast              266                 192860.
 MP_Allreduce         1444                   1181.
 -------------------------------------------------------------------------------


 -------------------------------------------------------------------------------
 -                                                                             -
 -                           R E F E R E N C E S                               -
 -                                                                             -
 -------------------------------------------------------------------------------
 
 CP2K version 2026.1 (Development Version), the CP2K developers group (2026).
 CP2K is freely available from https://www.cp2k.org/ .
 
 C. Schran, J. Behler, D. Marx.
 J. Chem. Theory Comput. 16, 88-99 (2020).
 Automated Fitting of Neural Network Potentials at Coupled Cluster Accuracy: 
 Protonated Water Clusters as Testing Ground.
 https://doi.org/10.1021/acs.jctc.9b00805

 C. Schran, K. Brezina, O. Marsalek.
 J. Chem. Phys. 153, 104105 (2020).
 Committee neural network potentials control generalization errors and enable 
 active learning.
 https://doi.org/10.1063/5.0016004

 O. Schuett, P. Messmer, J. Hutter, J. VandeVondele.
 Electronic Structure Calculations on Graphics Processing Units, 173-190 (2016).
 GPU-Accelerated Sparse Matrix-Matrix Multiplication for Linear Scaling Density 
 Functional Theory.
 https://doi.org/10.1002/9781118670712.ch8

 A. Heinecke, G. Henry, M. Hutchinson, H. Pabst.
 Proceedings of Intl. Supercomputing Conference, 981-991 (2016).
 LIBXSMM: Accelerating Small Matrix Multiplications by Runtime Code Generation.
 https://doi.org/10.1109/SC.2016.83

 J. Hutter, M. Iannuzzi, F. Schiffmann, J. VandeVondele.
 WIREs Comput Mol Sci. 4, 15-25 (2014).
 CP2K: atomistic simulations of condensed matter systems.
 https://doi.org/10.1002/wcms.1159

 U. Borstnik, J. VandeVondele, V. Weber, J. Hutter.
 Parallel Comput. 40, 47-58 (2014).
 Sparse matrix multiplication: The distributed block-compressed sparse row 
 library.
 https://doi.org/10.1016/j.parco.2014.03.012

 A. Marek, V. Blum, R. Johanni, V. Havu, B. Lang, T. Auckenthaler, A. Heinecke, 
 H. Bungartz, H. Lederer.
 J. Phys. Condens. Matter 26, 213201 (2014).
 The ELPA library: scalable parallel eigenvalue solutions for electronic 
 structure theory and computational science.
 https://doi.org/10.1088/0953-8984/26/21/213201

 J. Behler.
 J. Chem. Phys. 134, 074106 (2011).
 Atom-centered symmetry functions for constructing high-dimensional neural 
 network potentials.
 https://doi.org/10.1063/1.3553717

 G. Bussi, D. Donadio, M. Parrinello.
 J. Chem. Phys. 126, 014101 (2007).
 Canonical sampling through velocity rescaling.
 https://doi.org/10.1063/1.2408420

 J. Behler, M. Parrinello.
 Phys. Rev. Lett. 98, 146401 (2007).
 Generalized neural-network representation of high-dimensional potential-energy 
 surfaces.
 https://doi.org/10.1103/PhysRevLett.98.146401

 M. Frigo, S. G. Johnson.
 Proc. IEEE 93, 216-231 (2005).
 The design and implementation of FFTW3.
 https://doi.org/10.1109/JPROC.2004.840301


 -------------------------------------------------------------------------------
 -                                                                             -
 -                                T I M I N G                                  -
 -                                                                             -
 -------------------------------------------------------------------------------
 SUBROUTINE                       CALLS  ASD         SELF TIME        TOTAL TIME
                                MAXIMUM       AVERAGE  MAXIMUM  AVERAGE  MAXIMUM
 CP2K                                 1  1.0    0.058    0.089    3.691    3.692
 qs_mol_dyn_low                       1  2.0    0.005    0.006    2.882    2.944
 velocity_verlet                    100  3.0    0.006    0.009    2.671    2.744
 nnp_calc_energy_force              101  4.0    0.063    0.449    1.591    1.592
 md_output                          100  3.0    0.000    0.000    0.161    1.290
 mp_sum_dv                          609  4.4    1.160    1.240    1.160    1.240
 md_write_output                    101  4.0    0.043    0.635    0.083    1.192
 csvr_particles                     200  4.0    0.012    0.013    1.103    1.177
 nnp_calc_acsf                     1212  5.0    0.057    0.074    0.806    1.069
 nnp_acsf_angular                  1212  6.0    0.730    0.974    0.730    0.974
 write_trajectory                   404  5.0    0.019    0.253    0.037    0.555
 fft3d_s                              1  2.0    0.235    0.260    0.508    0.550
 mp_sum_dm                          301  5.0    0.320    0.454    0.320    0.454
 mp_sum_b                           101  5.0    0.395    0.422    0.395    0.422
 get_fft_scratch                      1  3.0    0.273    0.314    0.273    0.314
 write_particle_coordinates         101  6.0    0.019    0.301    0.019    0.301
 nnp_init                             1  2.0    0.000    0.000    0.177    0.213
 nnp_init_subsys                      1  3.0    0.000    0.000    0.159    0.202
 nnp_init_model                       1  4.0    0.016    0.017    0.141    0.193
 parser_read_line                  5074  5.0    0.002    0.003    0.125    0.179
 parser_read_line_low                25  6.0    0.014    0.020    0.123    0.177
 broadcast_input_information         25  7.0    0.037    0.039    0.109    0.164
 write_restart                      100  4.0    0.007    0.110    0.079    0.114
 mp_max_l                           123  4.4    0.058    0.081    0.058    0.081
 update_input                         5  5.0    0.000    0.000    0.072    0.077
 -------------------------------------------------------------------------------

 The number of warnings for this run is : 0
 
 -------------------------------------------------------------------------------
  **** **** ******  **  PROGRAM ENDED AT                 2026-04-29 22:59:10.554
 ***** ** ***  *** **   PROGRAM RAN ON                                 cerberus1
 **    ****   ******    PROGRAM RAN BY                                     crm98
 ***** **    ** ** **   PROGRAM PROCESS ID                               3629155
  **** **  *******  **  PROGRAM STOPPED IN /lsc/zeushome/crm98/cp2k-upstream-mas
                                           ter/benchmarks/NNP
