 DBCSR| CPU Multiplication driver                                           XSMM (U)
 DBCSR| Multrec recursion limit                                              512 (U)
 DBCSR| Multiplication stack size                                           1000 (D)
 DBCSR| Maximum elements for images                                    UNLIMITED (U)
 DBCSR| Multiplicative factor virtual images                                   1 (U)
 DBCSR| Use multiplication densification                                       T (D)
 DBCSR| Multiplication size stacks                                             3 (U)
 DBCSR| Use memory pool for CPU allocation                                     F (U)
 DBCSR| Number of 3D layers                                               SINGLE (U)
 DBCSR| Use MPI memory allocation                                              F (U)
 DBCSR| Use RMA algorithm                                                      F (U)
 DBCSR| Use Communication thread                                               T (U)
 DBCSR| Communication thread load                                             87 (D)
 DBCSR| MPI: My process id                                                     0
 DBCSR| MPI: Number of processes                                              36
 DBCSR| OMP: Current number of threads                                         1
 DBCSR| OMP: Max number of threads                                             1
 DBCSR| Split modifier for TAS multiplication algorithm                  1.0E+00 (U)


  **** **** ******  **  PROGRAM STARTED AT               2026-05-04 17:36:00.542
 ***** ** ***  *** **   PROGRAM STARTED ON                         phy-cerberus4
 **    ****   ******    PROGRAM STARTED BY                                 crm98
 ***** **    ** ** **   PROGRAM PROCESS ID                               1783718
  **** **  *******  **  PROGRAM STARTED IN /local/data/public/crm98/cp2k-benchma
                                           rks/results/cp2k_feature_native_splin
                                           e/NNP/NNP_size_scaling_feature-nnp-na
                                           tive-spline_04-05_17-35/N_4096

 CP2K| version string:                 CP2K version 2026.1 (Development Version)
 CP2K| source code revision number:                                   151b7d1223
 CP2K| cp2kflags: omp libint fftw3 libxc parallel scalapack mpi_f08 cosma ace de
 CP2K|            epmd xsmm plumed2 spglib libdftd4 dftd4_v3 mctc-lib tblite lib
 CP2K|            bvori libbqb libtorch mimic hdf5 trexio libsmeagol greenx
 CP2K| is freely available from                            https://www.cp2k.org/
 CP2K| Program compiled at                                   2026-05-04 17:24:31
 CP2K| Program compiled on                                         phy-cerberus4
 CP2K| Program compiled for                                               x86_64
 CP2K| Data directory path           /local/data/public/crm98/original_cp2k/data
 CP2K| Input file name                                                   run.inp

 GLOBAL| Force Environment number                                              1
 GLOBAL| Basis set file name                                           BASIS_SET
 GLOBAL| Potential file name                                           POTENTIAL
 GLOBAL| MM Potential file name                                     MM_POTENTIAL
 GLOBAL| Coordinate file name                                      __STD_INPUT__
 GLOBAL| Method name                                                        CP2K
 GLOBAL| Project name                                              H2O-64_NNP_MD
 GLOBAL| Run type                                                             MD
 GLOBAL| FFT library                                                       FFTW3
 GLOBAL| Diagonalization library                                       ScaLAPACK
 GLOBAL| Cholesky decomposition library                                ScaLAPACK
 GLOBAL| DGEMM library                                                      BLAS
 GLOBAL| Orthonormality check for eigenvectors                          DISABLED
 GLOBAL| Matrix multiplication library                                     COSMA
 GLOBAL| All-to-all communication in single precision                          F
 GLOBAL| FFTs using library dependent lengths                                  F
 GLOBAL| Grid backend                                                       AUTO
 GLOBAL| Global print level                                                  LOW
 GLOBAL| MPI I/O enabled                                                       T
 GLOBAL| Total number of message passing processes                            36
 GLOBAL| Number of distributed systems (nodes)                                 1
 GLOBAL| Number of threads for this process                                    1
 GLOBAL| This output is from process                                           0
 GLOBAL| OpenMP stack size per thread (OMP_STACKSIZE)                    default
 GLOBAL| CPU model name                              Intel(R) Xeon(R) Gold 5418Y
 GLOBAL| CPUID                                                              1003

 MEMORY| system memory details [Kb]
 MEMORY|                        rank 0           min           max       average
 MEMORY| MemTotal            263594404     263594404     263594404     263594404
 MEMORY| MemFree             190833376     190833376     190833376     190833376
 MEMORY| Buffers               2215536       2215536       2215536       2215536
 MEMORY| Cached               55542188      55542188      55542188      55542188
 MEMORY| Slab                  6848744       6848744       6848744       6848744
 MEMORY| SReclaimable          5214648       5214648       5214648       5214648
 MEMORY| MemLikelyFree       253805748     253805748     253805748     253805748


 GENERATE|  Preliminary Number of Bonds generated:                             0
 GENERATE|  Achieved consistency in connectivity generation.
 
 NNP| Neural Network Potential Force Environment
 NNP| Reading NNP input from file: NNP/bulkH2O-jcp2020-cnnp/nnp-1/input.nn
 NNP| Activation functions:  1  1  3
 NNP| short range atomic symmetry functions element H :
 NNP|   1 H   2 H             0.001  0.000 12.000
 NNP|   2 H   2 O             0.001  0.000 12.000
 NNP|   3 H   2 H             0.010  0.000 12.000
 NNP|   4 H   2 O             0.010  0.000 12.000
 NNP|   5 H   2 H             0.030  0.000 12.000
 NNP|   6 H   2 O             0.030  0.000 12.000
 NNP|   7 H   2 H             0.060  0.000 12.000
 NNP|   8 H   2 O             0.060  0.000 12.000
 NNP|   9 H   2 O             0.150  0.900 12.000
 NNP|  10 H   2 H             0.150  1.900 12.000
 NNP|  11 H   2 O             0.300  0.900 12.000
 NNP|  12 H   2 H             0.300  1.900 12.000
 NNP|  13 H   2 O             0.600  0.900 12.000
 NNP|  14 H   2 H             0.600  1.900 12.000
 NNP|  15 H   2 O             1.500  0.900 12.000
 NNP|  16 H   2 H             1.500  1.900 12.000
 NNP|   1 H   3 O  O   0.001 -1.000  4.000 12.000
 NNP|   2 H   3 O  O   0.001  1.000  4.000 12.000
 NNP|   3 H   3 H  O   0.010 -1.000  4.000 12.000
 NNP|   4 H   3 H  O   0.010  1.000  4.000 12.000
 NNP|   5 H   3 H  O   0.030 -1.000  1.000 12.000
 NNP|   6 H   3 O  O   0.030 -1.000  1.000 12.000
 NNP|   7 H   3 H  O   0.030  1.000  1.000 12.000
 NNP|   8 H   3 O  O   0.030  1.000  1.000 12.000
 NNP|   9 H   3 H  O   0.070 -1.000  1.000 12.000
 NNP|  10 H   3 H  O   0.070  1.000  1.000 12.000
 NNP|  11 H   3 H  O   0.200  1.000  1.000 12.000
 NNP| short range atomic symmetry functions element O :
 NNP|   1 O   2 H             0.001  0.000 12.000
 NNP|   2 O   2 O             0.001  0.000 12.000
 NNP|   3 O   2 H             0.010  0.000 12.000
 NNP|   4 O   2 O             0.010  0.000 12.000
 NNP|   5 O   2 H             0.030  0.000 12.000
 NNP|   6 O   2 O             0.030  0.000 12.000
 NNP|   7 O   2 H             0.060  0.000 12.000
 NNP|   8 O   2 O             0.060  0.000 12.000
 NNP|   9 O   2 H             0.150  0.900 12.000
 NNP|  10 O   2 O             0.150  4.000 12.000
 NNP|  11 O   2 H             0.300  0.900 12.000
 NNP|  12 O   2 O             0.300  4.000 12.000
 NNP|  13 O   2 H             0.600  0.900 12.000
 NNP|  14 O   2 O             0.600  4.000 12.000
 NNP|  15 O   2 H             1.500  0.900 12.000
 NNP|  16 O   2 O             1.500  4.000 12.000
 NNP|   1 O   3 H  O   0.001 -1.000  4.000 12.000
 NNP|   2 O   3 O  O   0.001 -1.000  4.000 12.000
 NNP|   3 O   3 H  O   0.001  1.000  4.000 12.000
 NNP|   4 O   3 O  O   0.001  1.000  4.000 12.000
 NNP|   5 O   3 H  H   0.010 -1.000  4.000 12.000
 NNP|   6 O   3 H  H   0.010  1.000  4.000 12.000
 NNP|   7 O   3 H  H   0.030 -1.000  1.000 12.000
 NNP|   8 O   3 H  O   0.030 -1.000  1.000 12.000
 NNP|   9 O   3 O  O   0.030 -1.000  1.000 12.000
 NNP|  10 O   3 H  H   0.030  1.000  1.000 12.000
 NNP|  11 O   3 H  O   0.030  1.000  1.000 12.000
 NNP|  12 O   3 O  O   0.030  1.000  1.000 12.000
 NNP|  13 O   3 H  H   0.070 -1.000  1.000 12.000
 NNP|  14 O   3 H  H   0.070  1.000  1.000 12.000
 NNP| Neural network specification for element H :
 NNP|  27 nodes in layer  1
 NNP|  20 nodes in layer  2
 NNP|  20 nodes in layer  3
 NNP|   1 nodes in layer  4
 NNP| Neural network specification for element O :
 NNP|  30 nodes in layer  1
 NNP|  20 nodes in layer  2
 NNP|  20 nodes in layer  3
 NNP|   1 nodes in layer  4
 NNP| Reading scaling information from file: NNP/bulkH2O-jcp2020-cnnp/nnp-1/input.nn
 NNP| Initializing weights for model:            1
 NNP| Reading weights from file: NNP/bulkH2O-jcp2020-cnnp/nnp-1/weights.001.data
 NNP| Reading weights from file: NNP/bulkH2O-jcp2020-cnnp/nnp-1/weights.008.data
 NNP| NNP force environment initialized

 MD_PAR| Molecular dynamics protocol (MD input parameters)
 MD_PAR| Ensemble type                                                       NVT
 MD_PAR| Number of time steps                                                100
 MD_PAR| Time step [fs]                                                 0.500000
 MD_PAR| Temperature [K]                                              300.000000
 MD_PAR| Temperature tolerance [K]                                      0.000000
 MD_PAR| Print MD information every                                    1 step(s)
 MD_PAR| File type   Print frequency [steps]                          File names
 MD_PAR| Coordinates          1                          H2O-64_NNP_MD-pos-1.xyz
 MD_PAR| Velocities           1                          H2O-64_NNP_MD-vel-1.xyz
 MD_PAR| Energies             1                             H2O-64_NNP_MD-1.ener
 MD_PAR| Dump                20                          H2O-64_NNP_MD-1.restart

 ROT| Rotational analysis information
 ROT| Principal axes and moments of inertia [a.u.]
 ROT|                           1                   2                   3
 ROT| Eigenvalues      2.51836669954E+11   2.65917082058E+11   2.73849094965E+11
 ROT|      x              0.926985305794      0.086790597640      0.364918669024
 ROT|      y             -0.318278247060      0.696798663376      0.642783462891
 ROT|      z             -0.198487279920     -0.711996499204      0.673545681325
 ROT| Number of rotovibrational vectors                                        6

 DOF| Calculation of degrees of freedom
 DOF| Number of atoms                                                      12288
 DOF| Number of intramolecular constraints                                     0
 DOF| Number of intermolecular constraints                                     0
 DOF| Invariants (translations + rotations)                                    3
 DOF| Degrees of freedom                                                   36861

 DOF| Restraints information
 DOF| Number of intramolecular restraints                                      0
 DOF| Number of intermolecular restraints                                      0

 THERMOSTAT| Thermostat information for PARTICLES
 THERMOSTAT| Type of thermostat            Canonical Sampling/Velocity Rescaling
 THERMOSTAT| CSVR time constant [fs]                                   30.000000
 THERMOSTAT| Initial kinetic energy                           0.000000000000E+00
 THERMOSTAT| End of thermostat information for PARTICLES

 MD_VEL| Velocities initialization
 MD_VEL| Initial temperature [K]                                      300.000000
 MD_VEL| COM velocity             0.0000000000     0.0000000000     0.0000000000

 ENERGY| Total FORCE_EVAL ( NNP ) energy [hartree]        240114.346473270416027

 MD_INI| MD initialization
 MD_INI| Potential energy [hartree]                           0.240114346473E+06
 MD_INI| Kinetic energy [hartree]                             0.175097970553E+02
 MD_INI| Temperature [K]                                              300.000000
 MD_INI| Cell volume [bohr^3]                                 8.274492531766E+05
 MD_INI| Cell volume [ang^3]                                  1.226153272320E+05
 MD_INI| Cell lengths [bohr]      9.38815943E+01  9.38815943E+01  9.38815943E+01
 MD_INI| Cell lengths [ang]       4.96800000E+01  4.96800000E+01  4.96800000E+01
 MD_INI| Cell angles [deg]        9.00000000E+01  9.00000000E+01  9.00000000E+01

 ENERGY| Total FORCE_EVAL ( NNP ) energy [hartree]        240112.346370736690005

 MD| ***************************************************************************
 MD| Step number                                                               1
 MD| Time [fs]                                                          0.500000
 MD| Conserved quantity [hartree]                             0.240130948755E+06
 MD| ---------------------------------------------------------------------------
 MD|                                          Instantaneous             Averages
 MD| CPU time per MD step [s]                      0.448694             0.448694
 MD| Energy drift per atom [K]          -0.233211649366E+02   0.000000000000E+00
 MD| Potential energy [hartree]          0.240112346371E+06   0.240112346371E+06
 MD| Kinetic energy [hartree]            0.185703179582E+02   0.185703179582E+02
 MD| Temperature [K]                             318.170186           318.170186
 MD| ***************************************************************************
 MD| Estimated peak process memory after this step [MiB]                     302

 ENERGY| Total FORCE_EVAL ( NNP ) energy [hartree]        240109.817853486019885

 MD| ***************************************************************************
 MD| Step number                                                               2
 MD| Time [fs]                                                          1.000000
 MD| Conserved quantity [hartree]                             0.240130969380E+06
 MD| ---------------------------------------------------------------------------
 MD|                                          Instantaneous             Averages
 MD| CPU time per MD step [s]                      0.238559             0.343627
 MD| Energy drift per atom [K]          -0.227911457414E+02  -0.113955728707E+02
 MD| Potential energy [hartree]          0.240109817853E+06   0.240111082112E+06
 MD| Kinetic energy [hartree]            0.211089912223E+02   0.198396545903E+02
 MD| Temperature [K]                             361.665949           339.918067
 MD| ***************************************************************************
 MD| Estimated peak process memory after this step [MiB]                     302

 ENERGY| Total FORCE_EVAL ( NNP ) energy [hartree]        240108.256408125831513

 MD| ***************************************************************************
 MD| Step number                                                               3
 MD| Time [fs]                                                          1.500000
 MD| Conserved quantity [hartree]                             0.240131543511E+06
 MD| ---------------------------------------------------------------------------
 MD|                                          Instantaneous             Averages
 MD| CPU time per MD step [s]                      0.222131             0.303128
 MD| Energy drift per atom [K]          -0.803722106733E+01  -0.102761222696E+02
 MD| Potential energy [hartree]          0.240108256408E+06   0.240110140211E+06
 MD| Kinetic energy [hartree]            0.231698670234E+02   0.209497254013E+02
 MD| Temperature [K]                             396.975481           358.937205
 MD| ***************************************************************************
 MD| Estimated peak process memory after this step [MiB]                     302

 ENERGY| Total FORCE_EVAL ( NNP ) energy [hartree]        240108.540213641506853

 MD| ***************************************************************************
 MD| Step number                                                               4
 MD| Time [fs]                                                          2.000000
 MD| Conserved quantity [hartree]                             0.240131871159E+06
 MD| ---------------------------------------------------------------------------
 MD|                                          Instantaneous             Averages
 MD| CPU time per MD step [s]                      0.223193             0.283144
 MD| Energy drift per atom [K]           0.382611826674E+00  -0.761143874551E+01
 MD| Potential energy [hartree]          0.240108540214E+06   0.240109740211E+06
 MD| Kinetic energy [hartree]            0.231194264040E+02   0.214921506520E+02
 MD| Temperature [K]                             396.111268           368.230721
 MD| ***************************************************************************
 MD| Estimated peak process memory after this step [MiB]                     302

 ENERGY| Total FORCE_EVAL ( NNP ) energy [hartree]        240110.918466834787978

 MD| ***************************************************************************
 MD| Step number                                                               5
 MD| Time [fs]                                                          2.500000
 MD| Conserved quantity [hartree]                             0.240134430732E+06
 MD| ---------------------------------------------------------------------------
 MD|                                          Instantaneous             Averages
 MD| CPU time per MD step [s]                      0.236679             0.273851
 MD| Energy drift per atom [K]           0.661580163948E+02   0.714245228255E+01
 MD| Potential energy [hartree]          0.240110918467E+06   0.240109975863E+06
 MD| Kinetic energy [hartree]            0.232467858757E+02   0.218430776967E+02
 MD| Temperature [K]                             398.293352           374.243247
 MD| ***************************************************************************
 MD| Estimated peak process memory after this step [MiB]                     302

 ENERGY| Total FORCE_EVAL ( NNP ) energy [hartree]        240107.272458032879513

 MD| ***************************************************************************
 MD| Step number                                                               6
 MD| Time [fs]                                                          3.000000
 MD| Conserved quantity [hartree]                             0.240134287301E+06
 MD| ---------------------------------------------------------------------------
 MD|                                          Instantaneous             Averages
 MD| CPU time per MD step [s]                      0.227925             0.266197
 MD| Energy drift per atom [K]           0.624721538234E+02   0.163640692060E+02
 MD| Potential energy [hartree]          0.240107272458E+06   0.240109525295E+06
 MD| Kinetic energy [hartree]            0.266086432852E+02   0.226373386281E+02
 MD| Temperature [K]                             455.892947           387.851531
 MD| ***************************************************************************
 MD| Estimated peak process memory after this step [MiB]                     302

 ENERGY| Total FORCE_EVAL ( NNP ) energy [hartree]        240101.368616338237189

 MD| ***************************************************************************
 MD| Step number                                                               7
 MD| Time [fs]                                                          3.500000
 MD| Conserved quantity [hartree]                             0.240133114596E+06
 MD| ---------------------------------------------------------------------------
 MD|                                          Instantaneous             Averages
 MD| CPU time per MD step [s]                      0.229963             0.261021
 MD| Energy drift per atom [K]           0.323362110949E+02   0.186458037616E+02
 MD| Potential energy [hartree]          0.240101368616E+06   0.240108360055E+06
 MD| Kinetic energy [hartree]            0.311229626508E+02   0.238495706314E+02
 MD| Temperature [K]                             533.237979           408.621023
 MD| ***************************************************************************
 MD| Estimated peak process memory after this step [MiB]                     302

 ENERGY| Total FORCE_EVAL ( NNP ) energy [hartree]        240097.292836133419769

 MD| ***************************************************************************
 MD| Step number                                                               8
 MD| Time [fs]                                                          4.000000
 MD| Conserved quantity [hartree]                             0.240132011949E+06
 MD| ---------------------------------------------------------------------------
 MD|                                          Instantaneous             Averages
 MD| CPU time per MD step [s]                      0.223325             0.256309
 MD| Energy drift per atom [K]           0.400061300730E+01   0.168151549173E+02
 MD| Potential energy [hartree]          0.240097292836E+06   0.240106976653E+06
 MD| Kinetic energy [hartree]            0.338666835679E+02   0.251017097484E+02
 MD| Temperature [K]                             580.246878           430.074255
 MD| ***************************************************************************
 MD| Estimated peak process memory after this step [MiB]                     302

 ENERGY| Total FORCE_EVAL ( NNP ) energy [hartree]        240096.588508934335550

 MD| ***************************************************************************
 MD| Step number                                                               9
 MD| Time [fs]                                                          4.500000
 MD| Conserved quantity [hartree]                             0.240133111103E+06
 MD| ---------------------------------------------------------------------------
 MD|                                          Instantaneous             Averages
 MD| CPU time per MD step [s]                      0.226735             0.253023
 MD| Energy drift per atom [K]           0.322464575984E+02   0.185297441041E+02
 MD| Potential energy [hartree]          0.240096588509E+06   0.240105822415E+06
 MD| Kinetic energy [hartree]            0.353548773430E+02   0.262409505923E+02
 MD| Temperature [K]                             605.744497           449.593171
 MD| ***************************************************************************
 MD| Estimated peak process memory after this step [MiB]                     302

 ENERGY| Total FORCE_EVAL ( NNP ) energy [hartree]        240095.868560335540678

 MD| ***************************************************************************
 MD| Step number                                                              10
 MD| Time [fs]                                                          5.000000
 MD| Conserved quantity [hartree]                             0.240134364320E+06
 MD| ---------------------------------------------------------------------------
 MD|                                          Instantaneous             Averages
 MD| CPU time per MD step [s]                      0.226716             0.250392
 MD| Energy drift per atom [K]           0.644513801334E+02   0.231219077070E+02
 MD| Potential energy [hartree]          0.240095868560E+06   0.240104827029E+06
 MD| Kinetic energy [hartree]            0.370503334803E+02   0.273218888811E+02
 MD| Temperature [K]                             634.793197           468.113173
 MD| ***************************************************************************
 MD| Estimated peak process memory after this step [MiB]                     302

 ENERGY| Total FORCE_EVAL ( NNP ) energy [hartree]        240099.193747315352084

 MD| ***************************************************************************
 MD| Step number                                                              11
 MD| Time [fs]                                                          5.500000
 MD| Conserved quantity [hartree]                             0.240140125234E+06
 MD| ---------------------------------------------------------------------------
 MD|                                          Instantaneous             Averages
 MD| CPU time per MD step [s]                      0.228752             0.248425
 MD| Energy drift per atom [K]           0.212494216879E+03   0.403375721772E+02
 MD| Potential energy [hartree]          0.240099193747E+06   0.240104314913E+06
 MD| Kinetic energy [hartree]            0.391172082178E+02   0.283941906390E+02
 MD| Temperature [K]                             670.205510           486.485204
 MD| ***************************************************************************
 MD| Estimated peak process memory after this step [MiB]                     302

 ENERGY| Total FORCE_EVAL ( NNP ) energy [hartree]        240092.856648745655548

 MD| ***************************************************************************
 MD| Step number                                                              12
 MD| Time [fs]                                                          6.000000
 MD| Conserved quantity [hartree]                             0.240142769222E+06
 MD| ---------------------------------------------------------------------------
 MD|                                          Instantaneous             Averages
 MD| CPU time per MD step [s]                      0.236446             0.247427
 MD| Energy drift per atom [K]           0.280438918162E+03   0.603460176759E+02
 MD| Potential energy [hartree]          0.240092856649E+06   0.240103360057E+06
 MD| Kinetic energy [hartree]            0.476451199070E+02   0.299984347446E+02
 MD| Temperature [K]                             816.316484           513.971144
 MD| ***************************************************************************
 MD| Estimated peak process memory after this step [MiB]                     302

 ENERGY| Total FORCE_EVAL ( NNP ) energy [hartree]        240100.111470598465530

 MD| ***************************************************************************
 MD| Step number                                                              13
 MD| Time [fs]                                                          6.500000
 MD| Conserved quantity [hartree]                             0.240170409846E+06
 MD| ---------------------------------------------------------------------------
 MD|                                          Instantaneous             Averages
 MD| CPU time per MD step [s]                      0.232174             0.246253
 MD| Energy drift per atom [K]           0.990742331336E+03   0.131914964881E+03
 MD| Potential energy [hartree]          0.240100111471E+06   0.240103110166E+06
 MD| Kinetic energy [hartree]            0.673120489436E+02   0.328687127599E+02
 MD| Temperature [K]                            1153.275199           563.148379
 MD| ***************************************************************************
 MD| Estimated peak process memory after this step [MiB]                     302

 ENERGY| Total FORCE_EVAL ( NNP ) energy [hartree]        240094.600133153056959

 MD| ***************************************************************************
 MD| Step number                                                              14
 MD| Time [fs]                                                          7.000000
 MD| Conserved quantity [hartree]                             0.240174434785E+06
 MD| ---------------------------------------------------------------------------
 MD|                                          Instantaneous             Averages
 MD| CPU time per MD step [s]                      0.228920             0.245015
 MD| Energy drift per atom [K]           0.109417444658E+04   0.200647785002E+03
 MD| Potential energy [hartree]          0.240094600133E+06   0.240102502307E+06
 MD| Kinetic energy [hartree]            0.759611367645E+02   0.359467430460E+02
 MD| Temperature [K]                            1301.462316           615.885089
 MD| ***************************************************************************
 MD| Estimated peak process memory after this step [MiB]                     302

 ENERGY| Total FORCE_EVAL ( NNP ) energy [hartree]        240089.269585861969972

 MD| ***************************************************************************
 MD| Step number                                                              15
 MD| Time [fs]                                                          7.500000
 MD| Conserved quantity [hartree]                             0.240181347687E+06
 MD| ---------------------------------------------------------------------------
 MD|                                          Instantaneous             Averages
 MD| CPU time per MD step [s]                      0.221895             0.243474
 MD| Energy drift per atom [K]           0.127182086673E+04   0.272059323784E+03
 MD| Potential energy [hartree]          0.240089269586E+06   0.240101620125E+06
 MD| Kinetic energy [hartree]            0.871609079335E+02   0.393610207052E+02
 MD| Temperature [K]                            1493.350968           674.382814
 MD| ***************************************************************************
 MD| Estimated peak process memory after this step [MiB]                     302

 ENERGY| Total FORCE_EVAL ( NNP ) energy [hartree]        240089.557299026608234

 MD| ***************************************************************************
 MD| Step number                                                              16
 MD| Time [fs]                                                          8.000000
 MD| Conserved quantity [hartree]                             0.240243124873E+06
 MD| ---------------------------------------------------------------------------
 MD|                                          Instantaneous             Averages
 MD| CPU time per MD step [s]                      0.227622             0.242483
 MD| Energy drift per atom [K]           0.285935903762E+04   0.433765555899E+03
 MD| Potential energy [hartree]          0.240089557299E+06   0.240100866199E+06
 MD| Kinetic energy [hartree]            0.147023946857E+03   0.460899535897E+02
 MD| Temperature [K]                            2519.000301           789.671407
 MD| ***************************************************************************
 MD| Estimated peak process memory after this step [MiB]                     302

 ENERGY| Total FORCE_EVAL ( NNP ) energy [hartree]        240070.439245761750499

 MD| ***************************************************************************
 MD| Step number                                                              17
 MD| Time [fs]                                                          8.500000
 MD| Conserved quantity [hartree]                             0.240250640235E+06
 MD| ---------------------------------------------------------------------------
 MD|                                          Instantaneous             Averages
 MD| CPU time per MD step [s]                      0.224346             0.241416
 MD| Energy drift per atom [K]           0.305248734665E+04   0.587808014178E+03
 MD| Potential energy [hartree]          0.240070439246E+06   0.240099076378E+06
 MD| Kinetic energy [hartree]            0.171274050501E+03   0.534537239962E+02
 MD| Temperature [K]                            2934.483763           915.836840
 MD| ***************************************************************************
 MD| Estimated peak process memory after this step [MiB]                     302

 ENERGY| Total FORCE_EVAL ( NNP ) energy [hartree]        240089.864406240289100

 MD| ***************************************************************************
 MD| Step number                                                              18
 MD| Time [fs]                                                          9.000000
 MD| Conserved quantity [hartree]                             0.240346096542E+06
 MD| ---------------------------------------------------------------------------
 MD|                                          Instantaneous             Averages
 MD| CPU time per MD step [s]                      0.232021             0.240894
 MD| Energy drift per atom [K]           0.550550507363E+04   0.861013406370E+03
 MD| Potential energy [hartree]          0.240089864406E+06   0.240098564602E+06
 MD| Kinetic energy [hartree]            0.244026433491E+03   0.640410967459E+02
 MD| Temperature [K]                            4180.969649          1097.233107
 MD| ***************************************************************************
 MD| Estimated peak process memory after this step [MiB]                     302

 ENERGY| Total FORCE_EVAL ( NNP ) energy [hartree]        240081.980320972681511

 MD| ***************************************************************************
 MD| Step number                                                              19
 MD| Time [fs]                                                          9.500000
 MD| Conserved quantity [hartree]                             0.240368683810E+06
 MD| ---------------------------------------------------------------------------
 MD|                                          Instantaneous             Averages
 MD| CPU time per MD step [s]                      0.223023             0.239954
 MD| Energy drift per atom [K]           0.608594830725E+04   0.113600998010E+04
 MD| Potential energy [hartree]          0.240081980321E+06   0.240097691745E+06
 MD| Kinetic energy [hartree]            0.270624005543E+03   0.749138814194E+02
 MD| Temperature [K]                            4636.672910          1283.519412
 MD| ***************************************************************************
 MD| Estimated peak process memory after this step [MiB]                     302

 ENERGY| Total FORCE_EVAL ( NNP ) energy [hartree]        240102.088055756001268

 MD| ***************************************************************************
 MD| Step number                                                              20
 MD| Time [fs]                                                         10.000000
 MD| Conserved quantity [hartree]                             0.240430066045E+06
 MD| ---------------------------------------------------------------------------
 MD|                                          Instantaneous             Averages
 MD| CPU time per MD step [s]                      0.232621             0.239587
 MD| Energy drift per atom [K]           0.766333713073E+04   0.146237633763E+04
 MD| Potential energy [hartree]          0.240102088056E+06   0.240097911560E+06
 MD| Kinetic energy [hartree]            0.307360646245E+03   0.865362196607E+02
 MD| Temperature [K]                            5266.091525          1482.648018
 MD| ***************************************************************************
 MD| Estimated peak process memory after this step [MiB]                     302

 ENERGY| Total FORCE_EVAL ( NNP ) energy [hartree]        240099.261423861462390

 MD| ***************************************************************************
 MD| Step number                                                              21
 MD| Time [fs]                                                         10.500000
 MD| Conserved quantity [hartree]                             0.240462903755E+06
 MD| ---------------------------------------------------------------------------
 MD|                                          Instantaneous             Averages
 MD| CPU time per MD step [s]                      0.332657             0.244019
 MD| Energy drift per atom [K]           0.850719423838E+04   0.179784385672E+04
 MD| Potential energy [hartree]          0.240099261424E+06   0.240097975840E+06
 MD| Kinetic energy [hartree]            0.337923687058E+03   0.985070514415E+02
 MD| Temperature [K]                            5789.736214          1687.747456
 MD| ***************************************************************************
 MD| Estimated peak process memory after this step [MiB]                     311

 ENERGY| Total FORCE_EVAL ( NNP ) energy [hartree]        240080.736440314940410

 MD| ***************************************************************************
 MD| Step number                                                              22
 MD| Time [fs]                                                         11.000000
 MD| Conserved quantity [hartree]                             0.240513329430E+06
 MD| ---------------------------------------------------------------------------
 MD|                                          Instantaneous             Averages
 MD| CPU time per MD step [s]                      0.228770             0.243326
 MD| Energy drift per atom [K]           0.980302350527E+04   0.216171565892E+04
 MD| Potential energy [hartree]          0.240080736440E+06   0.240097192230E+06
 MD| Kinetic energy [hartree]            0.401071942621E+03   0.112260001041E+03
 MD| Temperature [K]                            6871.672036          1923.380391
 MD| ***************************************************************************
 MD| Estimated peak process memory after this step [MiB]                     311

 ENERGY| Total FORCE_EVAL ( NNP ) energy [hartree]        240090.062175571685657

 MD| ***************************************************************************
 MD| Step number                                                              23
 MD| Time [fs]                                                         11.500000
 MD| Conserved quantity [hartree]                             0.240616456130E+06
 MD| ---------------------------------------------------------------------------
 MD|                                          Instantaneous             Averages
 MD| CPU time per MD step [s]                      0.245534             0.243422
 MD| Energy drift per atom [K]           0.124531534916E+05   0.260916947773E+04
 MD| Potential energy [hartree]          0.240090062176E+06   0.240096882228E+06
 MD| Kinetic energy [hartree]            0.487857751340E+03   0.128590338010E+03
 MD| Temperature [K]                            8358.596330          2203.172389
 MD| ***************************************************************************
 MD| Estimated peak process memory after this step [MiB]                     311

 ENERGY| Total FORCE_EVAL ( NNP ) energy [hartree]        240087.957938648440177

 MD| ***************************************************************************
 MD| Step number                                                              24
 MD| Time [fs]                                                         12.000000
 MD| Conserved quantity [hartree]                             0.240670454364E+06
 MD| ---------------------------------------------------------------------------
 MD|                                          Instantaneous             Averages
 MD| CPU time per MD step [s]                      0.229122             0.242826
 MD| Energy drift per atom [K]           0.138407896619E+05   0.307715365207E+04
 MD| Potential energy [hartree]          0.240087957939E+06   0.240096510383E+06
 MD| Kinetic energy [hartree]            0.535841830501E+03   0.145559150197E+03
 MD| Temperature [K]                            9180.720293          2493.903551
 MD| ***************************************************************************
 MD| Estimated peak process memory after this step [MiB]                     311

 ENERGY| Total FORCE_EVAL ( NNP ) energy [hartree]        240080.566322865808615

 MD| ***************************************************************************
 MD| Step number                                                              25
 MD| Time [fs]                                                         12.500000
 MD| Conserved quantity [hartree]                             0.240713460015E+06
 MD| ---------------------------------------------------------------------------
 MD|                                          Instantaneous             Averages
 MD| CPU time per MD step [s]                      0.227870             0.242228
 MD| Energy drift per atom [K]           0.149459405575E+05   0.355190512829E+04
 MD| Potential energy [hartree]          0.240080566323E+06   0.240095872620E+06
 MD| Kinetic energy [hartree]            0.577357293395E+03   0.162831075925E+03
 MD| Temperature [K]                            9892.015737          2789.828039
 MD| ***************************************************************************
 MD| Estimated peak process memory after this step [MiB]                     311

 ENERGY| Total FORCE_EVAL ( NNP ) energy [hartree]        240070.938278124434873

 MD| ***************************************************************************
 MD| Step number                                                              26
 MD| Time [fs]                                                         13.000000
 MD| Conserved quantity [hartree]                             0.240835263965E+06
 MD| ---------------------------------------------------------------------------
 MD|                                          Instantaneous             Averages
 MD| CPU time per MD step [s]                      0.225630             0.241589
 MD| Energy drift per atom [K]           0.180760349262E+05   0.411052550513E+04
 MD| Potential energy [hartree]          0.240070938278E+06   0.240094913607E+06
 MD| Kinetic energy [hartree]            0.698570957416E+03   0.183436455982E+03
 MD| Temperature [K]                           11968.801612          3142.865484
 MD| ***************************************************************************
 MD| Estimated peak process memory after this step [MiB]                     311

 ENERGY| Total FORCE_EVAL ( NNP ) energy [hartree]        240080.553512326703640

 MD| ***************************************************************************
 MD| Step number                                                              27
 MD| Time [fs]                                                         13.500000
 MD| Conserved quantity [hartree]                             0.240978564136E+06
 MD| ---------------------------------------------------------------------------
 MD|                                          Instantaneous             Averages
 MD| CPU time per MD step [s]                      0.227525             0.241068
 MD| Energy drift per atom [K]           0.217585350159E+05   0.476415548701E+04
 MD| Potential energy [hartree]          0.240080553512E+06   0.240094381752E+06
 MD| Kinetic energy [hartree]            0.819786419039E+03   0.207004973133E+03
 MD| Temperature [K]                           14045.618286          3546.671143
 MD| ***************************************************************************
 MD| Estimated peak process memory after this step [MiB]                     311

 ENERGY| Total FORCE_EVAL ( NNP ) energy [hartree]        240083.637312346254475

 MD| ***************************************************************************
 MD| Step number                                                              28
 MD| Time [fs]                                                         14.000000
 MD| Conserved quantity [hartree]                             0.240989567809E+06
 MD| ---------------------------------------------------------------------------
 MD|                                          Instantaneous             Averages
 MD| CPU time per MD step [s]                      0.227746             0.240593
 MD| Energy drift per atom [K]           0.220413052551E+05   0.538119655016E+04
 MD| Potential energy [hartree]          0.240083637312E+06   0.240093998022E+06
 MD| Kinetic energy [hartree]            0.814552401748E+03   0.228703095583E+03
 MD| Temperature [K]                           13955.942479          3918.430834
 MD| ***************************************************************************
 MD| Estimated peak process memory after this step [MiB]                     311

 ENERGY| Total FORCE_EVAL ( NNP ) energy [hartree]        240077.359371542203007

 MD| ***************************************************************************
 MD| Step number                                                              29
 MD| Time [fs]                                                         14.500000
 MD| Conserved quantity [hartree]                             0.240990662683E+06
 MD| ---------------------------------------------------------------------------
 MD|                                          Instantaneous             Averages
 MD| CPU time per MD step [s]                      0.226196             0.240096
 MD| Energy drift per atom [K]           0.220694411375E+05   0.595665326006E+04
 MD| Potential energy [hartree]          0.240077359372E+06   0.240093424275E+06
 MD| Kinetic energy [hartree]            0.808820331847E+03   0.248707138213E+03
 MD| Temperature [K]                           13857.733404          4261.165405
 MD| ***************************************************************************
 MD| Estimated peak process memory after this step [MiB]                     311

 ENERGY| Total FORCE_EVAL ( NNP ) energy [hartree]        240074.040014764614170

 MD| ***************************************************************************
 MD| Step number                                                              30
 MD| Time [fs]                                                         15.000000
 MD| Conserved quantity [hartree]                             0.241017724026E+06
 MD| ---------------------------------------------------------------------------
 MD|                                          Instantaneous             Averages
 MD| CPU time per MD step [s]                      0.224711             0.239583
 MD| Energy drift per atom [K]           0.227648582827E+05   0.651692676082E+04
 MD| Potential energy [hartree]          0.240074040015E+06   0.240092778133E+06
 MD| Kinetic energy [hartree]            0.825893413434E+03   0.267946680720E+03
 MD| Temperature [K]                           14150.251042          4590.801593
 MD| ***************************************************************************
 MD| Estimated peak process memory after this step [MiB]                     311

 ENERGY| Total FORCE_EVAL ( NNP ) energy [hartree]        240070.531348530581454

 MD| ***************************************************************************
 MD| Step number                                                              31
 MD| Time [fs]                                                         15.500000
 MD| Conserved quantity [hartree]                             0.241050621802E+06
 MD| ---------------------------------------------------------------------------
 MD|                                          Instantaneous             Averages
 MD| CPU time per MD step [s]                      0.227052             0.239179
 MD| Energy drift per atom [K]           0.236102589761E+05   0.706832457422E+04
 MD| Potential energy [hartree]          0.240070531349E+06   0.240092060495E+06
 MD| Kinetic energy [hartree]            0.848650394206E+03   0.286679058575E+03
 MD| Temperature [K]                           14540.152433          4911.748394
 MD| ***************************************************************************
 MD| Estimated peak process memory after this step [MiB]                     311

 ENERGY| Total FORCE_EVAL ( NNP ) energy [hartree]        240053.171520903299097

 MD| ***************************************************************************
 MD| Step number                                                              32
 MD| Time [fs]                                                         16.000000
 MD| Conserved quantity [hartree]                             0.241127125838E+06
 MD| ---------------------------------------------------------------------------
 MD|                                          Instantaneous             Averages
 MD| CPU time per MD step [s]                      0.232746             0.238978
 MD| Energy drift per atom [K]           0.255762448984E+05   0.764669708435E+04
 MD| Potential energy [hartree]          0.240053171521E+06   0.240090845215E+06
 MD| Kinetic energy [hartree]            0.928112440259E+03   0.306723851752E+03
 MD| Temperature [K]                           15901.596757          5255.181156
 MD| ***************************************************************************
 MD| Estimated peak process memory after this step [MiB]                     311

 ENERGY| Total FORCE_EVAL ( NNP ) energy [hartree]        240049.551194466708694

 MD| ***************************************************************************
 MD| Step number                                                              33
 MD| Time [fs]                                                         16.500000
 MD| Conserved quantity [hartree]                             0.241217996447E+06
 MD| ---------------------------------------------------------------------------
 MD|                                          Instantaneous             Averages
 MD| CPU time per MD step [s]                      0.235660             0.238878
 MD| Energy drift per atom [K]           0.279114202353E+05   0.826077960407E+04
 MD| Potential energy [hartree]          0.240049551194E+06   0.240089593881E+06
 MD| Kinetic energy [hartree]            0.100682356544E+04   0.327938994592E+03
 MD| Temperature [K]                           17250.175355          5618.665828
 MD| ***************************************************************************
 MD| Estimated peak process memory after this step [MiB]                     311

 ENERGY| Total FORCE_EVAL ( NNP ) energy [hartree]        240061.336232063389616

 MD| ***************************************************************************
 MD| Step number                                                              34
 MD| Time [fs]                                                         17.000000
 MD| Conserved quantity [hartree]                             0.241300204112E+06
 MD| ---------------------------------------------------------------------------
 MD|                                          Instantaneous             Averages
 MD| CPU time per MD step [s]                      0.228249             0.238565
 MD| Energy drift per atom [K]           0.300239769064E+05   0.890087364238E+04
 MD| Potential energy [hartree]          0.240061336232E+06   0.240088762773E+06
 MD| Kinetic energy [hartree]            0.106042859872E+04   0.349482806478E+03
 MD| Temperature [K]                           18168.604617          5987.781675
 MD| ***************************************************************************
 MD| Estimated peak process memory after this step [MiB]                     311

 ENERGY| Total FORCE_EVAL ( NNP ) energy [hartree]        240063.235353415337158

 MD| ***************************************************************************
 MD| Step number                                                              35
 MD| Time [fs]                                                         17.500000
 MD| Conserved quantity [hartree]                             0.241339816147E+06
 MD| ---------------------------------------------------------------------------
 MD|                                          Instantaneous             Averages
 MD| CPU time per MD step [s]                      0.229089             0.238294
 MD| Energy drift per atom [K]           0.310419193289E+05   0.953347494771E+04
 MD| Potential energy [hartree]          0.240063235353E+06   0.240088033418E+06
 MD| Kinetic energy [hartree]            0.108053983043E+04   0.370370150019E+03
 MD| Temperature [K]                           18513.175687          6345.650075
 MD| ***************************************************************************
 MD| Estimated peak process memory after this step [MiB]                     311

 ENERGY| Total FORCE_EVAL ( NNP ) energy [hartree]        240045.391828195482958

 MD| ***************************************************************************
 MD| Step number                                                              36
 MD| Time [fs]                                                         18.000000
 MD| Conserved quantity [hartree]                             0.241377693795E+06
 MD| ---------------------------------------------------------------------------
 MD|                                          Instantaneous             Averages
 MD| CPU time per MD step [s]                      0.235842             0.238226
 MD| Energy drift per atom [K]           0.320152918028E+05   0.101579698603E+05
 MD| Potential energy [hartree]          0.240045391828E+06   0.240086848930E+06
 MD| Kinetic energy [hartree]            0.111820254531E+04   0.391143272110E+03
 MD| Temperature [K]                           19158.460977          6701.561489
 MD| ***************************************************************************
 MD| Estimated peak process memory after this step [MiB]                     311

 ENERGY| Total FORCE_EVAL ( NNP ) energy [hartree]        240041.181104908027919

 MD| ***************************************************************************
 MD| Step number                                                              37
 MD| Time [fs]                                                         18.500000
 MD| Conserved quantity [hartree]                             0.241465916055E+06
 MD| ---------------------------------------------------------------------------
 MD|                                          Instantaneous             Averages
 MD| CPU time per MD step [s]                      0.234028             0.238113
 MD| Energy drift per atom [K]           0.342824103854E+05   0.108099817664E+05
 MD| Potential energy [hartree]          0.240041181105E+06   0.240085614664E+06
 MD| Kinetic energy [hartree]            0.119123282864E+04   0.412767314179E+03
 MD| Temperature [K]                           20409.708203          7072.051941
 MD| ***************************************************************************
 MD| Estimated peak process memory after this step [MiB]                     311

 ENERGY| Total FORCE_EVAL ( NNP ) energy [hartree]        240019.832300999114523

 MD| ***************************************************************************
 MD| Step number                                                              38
 MD| Time [fs]                                                         19.000000
 MD| Conserved quantity [hartree]                             0.241487735607E+06
 MD| ---------------------------------------------------------------------------
 MD|                                          Instantaneous             Averages
 MD| CPU time per MD step [s]                      0.237177             0.238088
 MD| Energy drift per atom [K]           0.348431250031E+05   0.114424329042E+05
 MD| Potential energy [hartree]          0.240019832301E+06   0.240083883549E+06
 MD| Kinetic energy [hartree]            0.121432692661E+04   0.433860988190E+03
 MD| Temperature [K]                           20805.385513          7433.455456
 MD| ***************************************************************************
 MD| Estimated peak process memory after this step [MiB]                     311

 ENERGY| Total FORCE_EVAL ( NNP ) energy [hartree]        240017.948761100502452

 MD| ***************************************************************************
 MD| Step number                                                              39
 MD| Time [fs]                                                         19.500000
 MD| Conserved quantity [hartree]                             0.241560400322E+06
 MD| ---------------------------------------------------------------------------
 MD|                                          Instantaneous             Averages
 MD| CPU time per MD step [s]                      0.229841             0.237877
 MD| Energy drift per atom [K]           0.367104488008E+05   0.120903307477E+05
 MD| Potential energy [hartree]          0.240017948761E+06   0.240082192914E+06
 MD| Kinetic energy [hartree]            0.126838405478E+04   0.455259015538E+03
 MD| Temperature [K]                           21731.560636          7800.073538
 MD| ***************************************************************************
 MD| Estimated peak process memory after this step [MiB]                     311

 ENERGY| Total FORCE_EVAL ( NNP ) energy [hartree]        239984.088770483998815

 MD| ***************************************************************************
 MD| Step number                                                              40
 MD| Time [fs]                                                         20.000000
 MD| Conserved quantity [hartree]                             0.241617773590E+06
 MD| ---------------------------------------------------------------------------
 MD|                                          Instantaneous             Averages
 MD| CPU time per MD step [s]                      0.229064             0.237656
 MD| Energy drift per atom [K]           0.381848159586E+05   0.127426928780E+05
 MD| Potential energy [hartree]          0.239984088770E+06   0.240079740310E+06
 MD| Kinetic energy [hartree]            0.133823774395E+04   0.477333483749E+03
 MD| Temperature [K]                           22928.382432          8178.281260
 MD| ***************************************************************************
 MD| Estimated peak process memory after this step [MiB]                     311

 ENERGY| Total FORCE_EVAL ( NNP ) energy [hartree]        239997.255786665133201

 MD| ***************************************************************************
 MD| Step number                                                              41
 MD| Time [fs]                                                         20.500000
 MD| Conserved quantity [hartree]                             0.241742296669E+06
 MD| ---------------------------------------------------------------------------
 MD|                                          Instantaneous             Averages
 MD| CPU time per MD step [s]                      0.321857             0.239710
 MD| Energy drift per atom [K]           0.413847859504E+05   0.134412805139E+05
 MD| Potential energy [hartree]          0.239997255787E+06   0.240077728493E+06
 MD| Kinetic energy [hartree]            0.142687302246E+04   0.500492984693E+03
 MD| Temperature [K]                           24446.994182          8575.079136
 MD| ***************************************************************************
 MD| Estimated peak process memory after this step [MiB]                     311

 ENERGY| Total FORCE_EVAL ( NNP ) energy [hartree]        239971.384293386858189

 MD| ***************************************************************************
 MD| Step number                                                              42
 MD| Time [fs]                                                         21.000000
 MD| Conserved quantity [hartree]                             0.241806560765E+06
 MD| ---------------------------------------------------------------------------
 MD|                                          Instantaneous             Averages
 MD| CPU time per MD step [s]                      0.233411             0.239560
 MD| Energy drift per atom [K]           0.430362322759E+05   0.141459222225E+05
 MD| Potential energy [hartree]          0.239971384293E+06   0.240075196488E+06
 MD| Kinetic energy [hartree]            0.149286283261E+04   0.524120838215E+03
 MD| Temperature [K]                           25577.615113          8979.901421
 MD| ***************************************************************************
 MD| Estimated peak process memory after this step [MiB]                     311

 ENERGY| Total FORCE_EVAL ( NNP ) energy [hartree]        239960.229892110277433

 MD| ***************************************************************************
 MD| Step number                                                              43
 MD| Time [fs]                                                         21.500000
 MD| Conserved quantity [hartree]                             0.241925212094E+06
 MD| ---------------------------------------------------------------------------
 MD|                                          Instantaneous             Averages
 MD| CPU time per MD step [s]                      0.229073             0.239316
 MD| Energy drift per atom [K]           0.460853111923E+05   0.148886987102E+05
 MD| Potential energy [hartree]          0.239960229892E+06   0.240072522846E+06
 MD| Kinetic energy [hartree]            0.159683139796E+04   0.549067595418E+03
 MD| Temperature [K]                           27358.936136          9407.320833
 MD| ***************************************************************************
 MD| Estimated peak process memory after this step [MiB]                     311

 ENERGY| Total FORCE_EVAL ( NNP ) energy [hartree]        239953.812632676650537

 MD| ***************************************************************************
 MD| Step number                                                              44
 MD| Time [fs]                                                         22.000000
 MD| Conserved quantity [hartree]                             0.241978511606E+06
 MD| ---------------------------------------------------------------------------
 MD|                                          Instantaneous             Averages
 MD| CPU time per MD step [s]                      0.230683             0.239120
 MD| Energy drift per atom [K]           0.474549917331E+05   0.156288417335E+05
 MD| Potential energy [hartree]          0.239953812633E+06   0.240069824887E+06
 MD| Kinetic energy [hartree]            0.162992889420E+04   0.573632624936E+03
 MD| Temperature [K]                           27926.004323          9828.200004
 MD| ***************************************************************************
 MD| Estimated peak process memory after this step [MiB]                     311

 ENERGY| Total FORCE_EVAL ( NNP ) energy [hartree]        239901.886779922671849

 MD| ***************************************************************************
 MD| Step number                                                              45
 MD| Time [fs]                                                         22.500000
 MD| Conserved quantity [hartree]                             0.242013105248E+06
 MD| ---------------------------------------------------------------------------
 MD|                                          Instantaneous             Averages
 MD| CPU time per MD step [s]                      0.233439             0.238994
 MD| Energy drift per atom [K]           0.483439724440E+05   0.163558446381E+05
 MD| Potential energy [hartree]          0.239901886780E+06   0.240066092929E+06
 MD| Kinetic energy [hartree]            0.168915793029E+04   0.598422076166E+03
 MD| Temperature [K]                           28940.791117         10252.924250
 MD| ***************************************************************************
 MD| Estimated peak process memory after this step [MiB]                     311

 ENERGY| Total FORCE_EVAL ( NNP ) energy [hartree]        239852.974512072716607

 MD| ***************************************************************************
 MD| Step number                                                              46
 MD| Time [fs]                                                         23.000000
 MD| Conserved quantity [hartree]                             0.242080817520E+06
 MD| ---------------------------------------------------------------------------
 MD|                                          Instantaneous             Averages
 MD| CPU time per MD step [s]                      0.235821             0.238925
 MD| Energy drift per atom [K]           0.500840293208E+05   0.170890660443E+05
 MD| Potential energy [hartree]          0.239852974512E+06   0.240061459920E+06
 MD| Kinetic energy [hartree]            0.177742023911E+04   0.624052471012E+03
 MD| Temperature [K]                           30453.012679         10692.056608
 MD| ***************************************************************************
 MD| Estimated peak process memory after this step [MiB]                     311

 ENERGY| Total FORCE_EVAL ( NNP ) energy [hartree]        239843.864843858027598

 MD| ***************************************************************************
 MD| Step number                                                              47
 MD| Time [fs]                                                         23.500000
 MD| Conserved quantity [hartree]                             0.242244945158E+06
 MD| ---------------------------------------------------------------------------
 MD|                                          Instantaneous             Averages
 MD| CPU time per MD step [s]                      0.227912             0.238690
 MD| Energy drift per atom [K]           0.543017496274E+05   0.178808252695E+05
 MD| Potential energy [hartree]          0.239843864844E+06   0.240056830237E+06
 MD| Kinetic energy [hartree]            0.191983887242E+04   0.651622394447E+03
 MD| Temperature [K]                           32893.108921         11164.419423
 MD| ***************************************************************************
 MD| Estimated peak process memory after this step [MiB]                     311

 ENERGY| Total FORCE_EVAL ( NNP ) energy [hartree]        239827.710350685578305

 MD| ***************************************************************************
 MD| Step number                                                              48
 MD| Time [fs]                                                         24.000000
 MD| Conserved quantity [hartree]                             0.242474984617E+06
 MD| ---------------------------------------------------------------------------
 MD|                                          Instantaneous             Averages
 MD| CPU time per MD step [s]                      0.229972             0.238509
 MD| Energy drift per atom [K]           0.602132591727E+05   0.187627509758E+05
 MD| Potential energy [hartree]          0.239827710351E+06   0.240052056906E+06
 MD| Kinetic energy [hartree]            0.213278935942E+04   0.682480039550E+03
 MD| Temperature [K]                           36541.646131         11693.111646
 MD| ***************************************************************************
 MD| Estimated peak process memory after this step [MiB]                     311

 ENERGY| Total FORCE_EVAL ( NNP ) energy [hartree]        239776.404733634641161

 MD| ***************************************************************************
 MD| Step number                                                              49
 MD| Time [fs]                                                         24.500000
 MD| Conserved quantity [hartree]                             0.242566846047E+06
 MD| ---------------------------------------------------------------------------
 MD|                                          Instantaneous             Averages
 MD| CPU time per MD step [s]                      0.227028             0.238274
 MD| Energy drift per atom [K]           0.625738964325E+05   0.196568559851E+05
 MD| Potential energy [hartree]          0.239776404734E+06   0.240046431352E+06
 MD| Kinetic energy [hartree]            0.224040936761E+04   0.714274515633E+03
 MD| Temperature [K]                           38385.528294         12237.854843
 MD| ***************************************************************************
 MD| Estimated peak process memory after this step [MiB]                     311

 ENERGY| Total FORCE_EVAL ( NNP ) energy [hartree]        239745.223389110644348

 MD| ***************************************************************************
 MD| Step number                                                              50
 MD| Time [fs]                                                         25.000000
 MD| Conserved quantity [hartree]                             0.242847784348E+06
 MD| ---------------------------------------------------------------------------
 MD|                                          Instantaneous             Averages
 MD| CPU time per MD step [s]                      0.229171             0.238092
 MD| Energy drift per atom [K]           0.697933945768E+05   0.206595867569E+05
 MD| Potential energy [hartree]          0.239745223389E+06   0.240040407193E+06
 MD| Kinetic energy [hartree]            0.251327492220E+04   0.750254523765E+03
 MD| Temperature [K]                           43060.606258         12854.309871
 MD| ***************************************************************************
 MD| Estimated peak process memory after this step [MiB]                     311

 ENERGY| Total FORCE_EVAL ( NNP ) energy [hartree]        239760.129497665911913

 MD| ***************************************************************************
 MD| Step number                                                              51
 MD| Time [fs]                                                         25.500000
 MD| Conserved quantity [hartree]                             0.243028989373E+06
 MD| ---------------------------------------------------------------------------
 MD|                                          Instantaneous             Averages
 MD| CPU time per MD step [s]                      0.229167             0.237917
 MD| Energy drift per atom [K]           0.744499662601E+05   0.217143000805E+05
 MD| Potential energy [hartree]          0.239760129498E+06   0.240034911551E+06
 MD| Kinetic energy [hartree]            0.263705033109E+04   0.787250519987E+03
 MD| Temperature [K]                           45181.283188         13488.172093
 MD| ***************************************************************************
 MD| Estimated peak process memory after this step [MiB]                     311

 ENERGY| Total FORCE_EVAL ( NNP ) energy [hartree]        239734.398973346513230

 MD| ***************************************************************************
 MD| Step number                                                              52
 MD| Time [fs]                                                         26.000000
 MD| Conserved quantity [hartree]                             0.243148404060E+06
 MD| ---------------------------------------------------------------------------
 MD|                                          Instantaneous             Averages
 MD| CPU time per MD step [s]                      0.229411             0.237754
 MD| Energy drift per atom [K]           0.775186617942E+05   0.227874608827E+05
 MD| Potential energy [hartree]          0.239734398973E+06   0.240029132463E+06
 MD| Kinetic energy [hartree]            0.273747108297E+04   0.824754761582E+03
 MD| Temperature [K]                           46901.818582         14130.742218
 MD| ***************************************************************************
 MD| Estimated peak process memory after this step [MiB]                     311

 ENERGY| Total FORCE_EVAL ( NNP ) energy [hartree]        239670.594034713547444

 MD| ***************************************************************************
 MD| Step number                                                              53
 MD| Time [fs]                                                         26.500000
 MD| Conserved quantity [hartree]                             0.243299320246E+06
 MD| ---------------------------------------------------------------------------
 MD|                                          Instantaneous             Averages
 MD| CPU time per MD step [s]                      0.237220             0.237744
 MD| Energy drift per atom [K]           0.813968767685E+05   0.238932989183E+05
 MD| Potential energy [hartree]          0.239670594035E+06   0.240022367587E+06
 MD| Kinetic energy [hartree]            0.290561026345E+04   0.864016186146E+03
 MD| Temperature [K]                           49782.591785         14803.418625
 MD| ***************************************************************************
 MD| Estimated peak process memory after this step [MiB]                     311

 ENERGY| Total FORCE_EVAL ( NNP ) energy [hartree]        239644.752662623388460

 MD| ***************************************************************************
 MD| Step number                                                              54
 MD| Time [fs]                                                         27.000000
 MD| Conserved quantity [hartree]                             0.243444864825E+06
 MD| ---------------------------------------------------------------------------
 MD|                                          Instantaneous             Averages
 MD| CPU time per MD step [s]                      0.228935             0.237581
 MD| Energy drift per atom [K]           0.851370532167E+05   0.250274425164E+05
 MD| Potential energy [hartree]          0.239644752663E+06   0.240015374718E+06
 MD| Kinetic energy [hartree]            0.302759297219E+04   0.904082422924E+03
 MD| Temperature [K]                           51872.553907         15489.884093
 MD| ***************************************************************************
 MD| Estimated peak process memory after this step [MiB]                     311

 ENERGY| Total FORCE_EVAL ( NNP ) energy [hartree]        239581.274583011225332

 MD| ***************************************************************************
 MD| Step number                                                              55
 MD| Time [fs]                                                         27.500000
 MD| Conserved quantity [hartree]                             0.243592518657E+06
 MD| ---------------------------------------------------------------------------
 MD|                                          Instantaneous             Averages
 MD| CPU time per MD step [s]                      0.236918             0.237569
 MD| Energy drift per atom [K]           0.889314328331E+05   0.261893332494E+05
 MD| Potential energy [hartree]          0.239581274583E+06   0.240007481989E+06
 MD| Kinetic energy [hartree]            0.318753456106E+04   0.945599734527E+03
 MD| Temperature [K]                           54612.875597         16201.211211
 MD| ***************************************************************************
 MD| Estimated peak process memory after this step [MiB]                     311

 ENERGY| Total FORCE_EVAL ( NNP ) energy [hartree]        239489.177756886027055

 MD| ***************************************************************************
 MD| Step number                                                              56
 MD| Time [fs]                                                         28.000000
 MD| Conserved quantity [hartree]                             0.243686384298E+06
 MD| ---------------------------------------------------------------------------
 MD|                                          Instantaneous             Averages
 MD| CPU time per MD step [s]                      0.230599             0.237444
 MD| Energy drift per atom [K]           0.913435739299E+05   0.273528018330E+05
 MD| Potential energy [hartree]          0.239489177757E+06   0.239998226556E+06
 MD| Kinetic energy [hartree]            0.331970918632E+04   0.987994546166E+03
 MD| Temperature [K]                           56877.458531         16927.572770
 MD| ***************************************************************************
 MD| Estimated peak process memory after this step [MiB]                     311

 ENERGY| Total FORCE_EVAL ( NNP ) energy [hartree]        239464.865729555371217

 MD| ***************************************************************************
 MD| Step number                                                              57
 MD| Time [fs]                                                         28.500000
 MD| Conserved quantity [hartree]                             0.244048448925E+06
 MD| ---------------------------------------------------------------------------
 MD|                                          Instantaneous             Averages
 MD| CPU time per MD step [s]                      0.240173             0.237492
 MD| Energy drift per atom [K]           0.100647840707E+06   0.286386797080E+05
 MD| Potential energy [hartree]          0.239464865730E+06   0.239988869348E+06
 MD| Kinetic energy [hartree]            0.364853628770E+04   0.103467071707E+04
 MD| Temperature [K]                           62511.340529         17727.287994
 MD| ***************************************************************************
 MD| Estimated peak process memory after this step [MiB]                     311

 ENERGY| Total FORCE_EVAL ( NNP ) energy [hartree]        239382.542288686992833

 MD| ***************************************************************************
 MD| Step number                                                              58
 MD| Time [fs]                                                         29.000000
 MD| Conserved quantity [hartree]                             0.244411170977E+06
 MD| ---------------------------------------------------------------------------
 MD|                                          Instantaneous             Averages
 MD| CPU time per MD step [s]                      0.230360             0.237369
 MD| Energy drift per atom [K]           0.109969001858E+06   0.300409266416E+05
 MD| Potential energy [hartree]          0.239382542289E+06   0.239978415434E+06
 MD| Kinetic energy [hartree]            0.402992986577E+04   0.108631311619E+04
 MD| Temperature [K]                           69045.857922         18612.090924
 MD| ***************************************************************************
 MD| Estimated peak process memory after this step [MiB]                     311

 ENERGY| Total FORCE_EVAL ( NNP ) energy [hartree]        239231.966483400377911

 MD| ***************************************************************************
 MD| Step number                                                              59
 MD| Time [fs]                                                         29.500000
 MD| Conserved quantity [hartree]                             0.244577664337E+06
 MD| ---------------------------------------------------------------------------
 MD|                                          Instantaneous             Averages
 MD| CPU time per MD step [s]                      0.229688             0.237239
 MD| Energy drift per atom [K]           0.114247516012E+06   0.314681569699E+05
 MD| Potential energy [hartree]          0.239231966483E+06   0.239965763757E+06
[...]
 MD| Step number                                                              90
 MD| Time [fs]                                                         45.000000
 MD| Conserved quantity [hartree]                             0.270538852262E+06
 MD| ---------------------------------------------------------------------------
 MD|                                          Instantaneous             Averages
 MD| CPU time per MD step [s]                      0.246853             0.240149
 MD| Energy drift per atom [K]           0.781393103267E+06   0.144952530009E+06
 MD| Potential energy [hartree]          0.232657941714E+06   0.238948666483E+06
 MD| Kinetic energy [hartree]            0.299997267119E+05   0.543700469785E+04
 MD| Temperature [K]                          513993.279598         93153.644454
 MD| ***************************************************************************
 MD| Estimated peak process memory after this step [MiB]                     311

 ENERGY| Total FORCE_EVAL ( NNP ) energy [hartree]        231838.475988617195981

 MD| ***************************************************************************
 MD| Step number                                                              91
 MD| Time [fs]                                                         45.500000
 MD| Conserved quantity [hartree]                             0.272518870669E+06
 MD| ---------------------------------------------------------------------------
 MD|                                          Instantaneous             Averages
 MD| CPU time per MD step [s]                      0.247479             0.240230
 MD| Energy drift per atom [K]           0.832275233422E+06   0.152505526750E+06
 MD| Potential energy [hartree]          0.231838475989E+06   0.238870532522E+06
 MD| Kinetic energy [hartree]            0.322789300735E+05   0.573197091077E+04
 MD| Temperature [K]                          553043.475686         98207.378863
 MD| ***************************************************************************
 MD| Estimated peak process memory after this step [MiB]                     311

 ENERGY| Total FORCE_EVAL ( NNP ) energy [hartree]        231219.705631769145839

 MD| ***************************************************************************
 MD| Step number                                                              92
 MD| Time [fs]                                                         46.000000
 MD| Conserved quantity [hartree]                             0.274678916767E+06
 MD| ---------------------------------------------------------------------------
 MD|                                          Instantaneous             Averages
 MD| CPU time per MD step [s]                      0.245072             0.240282
 MD| Energy drift per atom [K]           0.887783680366E+06   0.160497680594E+06
 MD| Potential energy [hartree]          0.231219705632E+06   0.238787371360E+06
 MD| Kinetic energy [hartree]            0.345002724987E+05   0.604466984107E+04
 MD| Temperature [K]                          591102.324995        103564.932626
 MD| ***************************************************************************
 MD| Estimated peak process memory after this step [MiB]                     311

 ENERGY| Total FORCE_EVAL ( NNP ) energy [hartree]        230934.883789841784164

 MD| ***************************************************************************
 MD| Step number                                                              93
 MD| Time [fs]                                                         46.500000
 MD| Conserved quantity [hartree]                             0.277152376361E+06
 MD| ---------------------------------------------------------------------------
 MD|                                          Instantaneous             Averages
 MD| CPU time per MD step [s]                      0.244940             0.240332
 MD| Energy drift per atom [K]           0.951346166737E+06   0.169001427757E+06
 MD| Potential energy [hartree]          0.230934883790E+06   0.238702936010E+06
 MD| Kinetic energy [hartree]            0.366644934999E+05   0.637391525676E+04
 MD| Temperature [K]                          628182.497788        109205.981713
 MD| ***************************************************************************
 MD| Estimated peak process memory after this step [MiB]                     311

 ENERGY| Total FORCE_EVAL ( NNP ) energy [hartree]        230437.765913991868729

 MD| ***************************************************************************
 MD| Step number                                                              94
 MD| Time [fs]                                                         47.000000
 MD| Conserved quantity [hartree]                             0.279670395412E+06
 MD| ---------------------------------------------------------------------------
 MD|                                          Instantaneous             Averages
 MD| CPU time per MD step [s]                      0.249638             0.240431
 MD| Energy drift per atom [K]           0.101605373339E+07   0.178012622497E+06
 MD| Potential energy [hartree]          0.230437765914E+06   0.238615008668E+06
 MD| Kinetic energy [hartree]            0.390495679849E+05   0.672152858366E+04
 MD| Temperature [K]                          669046.611931        115161.733099
 MD| ***************************************************************************
 MD| Estimated peak process memory after this step [MiB]                     311

 ENERGY| Total FORCE_EVAL ( NNP ) energy [hartree]        229498.713043613533955

 MD| ***************************************************************************
 MD| Step number                                                              95
 MD| Time [fs]                                                         47.500000
 MD| Conserved quantity [hartree]                             0.281748619367E+06
 MD| ---------------------------------------------------------------------------
 MD|                                          Instantaneous             Averages
 MD| CPU time per MD step [s]                      0.258790             0.240625
 MD| Energy drift per atom [K]           0.106945953074E+07   0.187396274163E+06
 MD| Potential energy [hartree]          0.229498713044E+06   0.238519047662E+06
 MD| Kinetic energy [hartree]            0.413974060277E+05   0.708653781991E+04
 MD| Temperature [K]                          709272.744227        121415.533216
 MD| ***************************************************************************
 MD| Estimated peak process memory after this step [MiB]                     311

 ENERGY| Total FORCE_EVAL ( NNP ) energy [hartree]        228508.577375653665513

 MD| ***************************************************************************
 MD| Step number                                                              96
 MD| Time [fs]                                                         48.000000
 MD| Conserved quantity [hartree]                             0.283909640345E+06
 MD| ---------------------------------------------------------------------------
 MD|                                          Instantaneous             Averages
 MD| CPU time per MD step [s]                      0.261188             0.240839
 MD| Energy drift per atom [K]           0.112499302996E+07   0.197162907036E+06
 MD| Potential energy [hartree]          0.228508577376E+06   0.238414771930E+06
 MD| Kinetic energy [hartree]            0.438390123177E+05   0.746937609593E+04
 MD| Temperature [K]                          751105.432789        127974.803003
 MD| ***************************************************************************
 MD| Estimated peak process memory after this step [MiB]                     311

 ENERGY| Total FORCE_EVAL ( NNP ) energy [hartree]        227875.222152165923035

 MD| ***************************************************************************
 MD| Step number                                                              97
 MD| Time [fs]                                                         48.500000
 MD| Conserved quantity [hartree]                             0.286313023749E+06
 MD| ---------------------------------------------------------------------------
 MD|                                          Instantaneous             Averages
 MD| CPU time per MD step [s]                      0.249125             0.240924
 MD| Energy drift per atom [K]           0.118675471195E+07   0.207364884406E+06
 MD| Potential energy [hartree]          0.227875222152E+06   0.238306116777E+06
 MD| Kinetic energy [hartree]            0.461258742217E+05   0.786789669516E+04
 MD| Temperature [K]                          790286.844717        134802.762196
 MD| ***************************************************************************
 MD| Estimated peak process memory after this step [MiB]                     311

 ENERGY| Total FORCE_EVAL ( NNP ) energy [hartree]        227111.193685653473949

 MD| ***************************************************************************
 MD| Step number                                                              98
 MD| Time [fs]                                                         49.000000
 MD| Conserved quantity [hartree]                             0.289263259463E+06
 MD| ---------------------------------------------------------------------------
 MD|                                          Instantaneous             Averages
 MD| CPU time per MD step [s]                      0.252324             0.241040
 MD| Energy drift per atom [K]           0.126256929884E+07   0.218132276390E+06
 MD| Potential energy [hartree]          0.227111193686E+06   0.238191882868E+06
 MD| Kinetic energy [hartree]            0.490475506425E+05   0.828809724564E+04
 MD| Temperature [K]                          840344.702240        142002.169747
 MD| ***************************************************************************
 MD| Estimated peak process memory after this step [MiB]                     311

 ENERGY| Total FORCE_EVAL ( NNP ) energy [hartree]        226267.093525501899421

 MD| ***************************************************************************
 MD| Step number                                                              99
 MD| Time [fs]                                                         49.500000
 MD| Conserved quantity [hartree]                             0.291833975845E+06
 MD| ---------------------------------------------------------------------------
 MD|                                          Instantaneous             Averages
 MD| CPU time per MD step [s]                      0.255356             0.241185
 MD| Energy drift per atom [K]           0.132863107134E+07   0.229349435935E+06
 MD| Potential energy [hartree]          0.226267093526E+06   0.238071430451E+06
 MD| Kinetic energy [hartree]            0.516248804719E+05   0.872584253076E+04
 MD| Temperature [K]                          884502.778223        149502.175894
 MD| ***************************************************************************
 MD| Estimated peak process memory after this step [MiB]                     311

 ENERGY| Total FORCE_EVAL ( NNP ) energy [hartree]        225619.749418417981360

 MD| ***************************************************************************
 MD| Step number                                                             100
 MD| Time [fs]                                                         50.000000
 MD| Conserved quantity [hartree]                             0.294595838483E+06
 MD| ---------------------------------------------------------------------------
 MD|                                          Instantaneous             Averages
 MD| CPU time per MD step [s]                      0.256925             0.241342
 MD| Energy drift per atom [K]           0.139960488334E+07   0.241051990409E+06
 MD| Potential energy [hartree]          0.225619749418E+06   0.237946913640E+06
 MD| Kinetic energy [hartree]            0.541510169809E+05   0.918009427526E+04
 MD| Temperature [K]                          927783.745462        157284.991589
 MD| ***************************************************************************
 MD| Estimated peak process memory after this step [MiB]                     311

 -------------------------------------------------------------------------------
 -                                                                             -
 -                                DBCSR STATISTICS                             -
 -                                                                             -
 -------------------------------------------------------------------------------
 COUNTER                                    TOTAL       BLAS       SMM       ACC
 flops inhomo. stacks                           0       0.0%      0.0%      0.0%
 flops total                         0.000000E+00       0.0%      0.0%      0.0%
 flops max/rank                      0.000000E+00       0.0%      0.0%      0.0%
 matmuls inhomo. stacks                         0       0.0%      0.0%      0.0%
 matmuls total                                  0       0.0%      0.0%      0.0%
 number of processed stacks                     0       0.0%      0.0%      0.0%
 average stack size                                     0.0       0.0       0.0
 marketing flops                     0.000000E+00
 -------------------------------------------------------------------------------
 -                                                                             -
 -                      DBCSR MESSAGE PASSING PERFORMANCE                      -
 -                                                                             -
 -------------------------------------------------------------------------------
 ROUTINE             CALLS      AVE VOLUME [Bytes]
 MP_Bcast                1                     12.
 MP_Allreduce           19                     21.
 -------------------------------------------------------------------------------

 MEMORY| Estimated peak process memory [MiB]                                 311

 -------------------------------------------------------------------------------
 -                                                                             -
 -                         MESSAGE PASSING PERFORMANCE                         -
 -                                                                             -
 -------------------------------------------------------------------------------

 ROUTINE             CALLS      AVE VOLUME [Bytes]
 MP_Bcast              286                 179373.
 MP_Allreduce         1444                  68596.
 -------------------------------------------------------------------------------


 -------------------------------------------------------------------------------
 -                                                                             -
 -                           R E F E R E N C E S                               -
 -                                                                             -
 -------------------------------------------------------------------------------
 
 CP2K version 2026.1 (Development Version), the CP2K developers group (2026).
 CP2K is freely available from https://www.cp2k.org/ .
 
 C. Schran, J. Behler, D. Marx.
 J. Chem. Theory Comput. 16, 88-99 (2020).
 Automated Fitting of Neural Network Potentials at Coupled Cluster Accuracy: 
 Protonated Water Clusters as Testing Ground.
 https://doi.org/10.1021/acs.jctc.9b00805

 C. Schran, K. Brezina, O. Marsalek.
 J. Chem. Phys. 153, 104105 (2020).
 Committee neural network potentials control generalization errors and enable 
 active learning.
 https://doi.org/10.1063/5.0016004

 O. Schuett, P. Messmer, J. Hutter, J. VandeVondele.
 Electronic Structure Calculations on Graphics Processing Units, 173-190 (2016).
 GPU-Accelerated Sparse Matrix-Matrix Multiplication for Linear Scaling Density 
 Functional Theory.
 https://doi.org/10.1002/9781118670712.ch8

 A. Heinecke, G. Henry, M. Hutchinson, H. Pabst.
 Proceedings of Intl. Supercomputing Conference, 981-991 (2016).
 LIBXSMM: Accelerating Small Matrix Multiplications by Runtime Code Generation.
 https://doi.org/10.1109/SC.2016.83

 J. Hutter, M. Iannuzzi, F. Schiffmann, J. VandeVondele.
 WIREs Comput Mol Sci. 4, 15-25 (2014).
 CP2K: atomistic simulations of condensed matter systems.
 https://doi.org/10.1002/wcms.1159

 U. Borstnik, J. VandeVondele, V. Weber, J. Hutter.
 Parallel Comput. 40, 47-58 (2014).
 Sparse matrix multiplication: The distributed block-compressed sparse row 
 library.
 https://doi.org/10.1016/j.parco.2014.03.012

 J. Behler.
 J. Chem. Phys. 134, 074106 (2011).
 Atom-centered symmetry functions for constructing high-dimensional neural 
 network potentials.
 https://doi.org/10.1063/1.3553717

 G. Bussi, D. Donadio, M. Parrinello.
 J. Chem. Phys. 126, 014101 (2007).
 Canonical sampling through velocity rescaling.
 https://doi.org/10.1063/1.2408420

 J. Behler, M. Parrinello.
 Phys. Rev. Lett. 98, 146401 (2007).
 Generalized neural-network representation of high-dimensional potential-energy 
 surfaces.
 https://doi.org/10.1103/PhysRevLett.98.146401

 M. Frigo, S. G. Johnson.
 Proc. IEEE 93, 216-231 (2005).
 The design and implementation of FFTW3.
 https://doi.org/10.1109/JPROC.2004.840301


 -------------------------------------------------------------------------------
 -                                                                             -
 -                                T I M I N G                                  -
 -                                                                             -
 -------------------------------------------------------------------------------
 SUBROUTINE                       CALLS  ASD         SELF TIME        TOTAL TIME
                                MAXIMUM       AVERAGE  MAXIMUM  AVERAGE  MAXIMUM
 CP2K                                 1  1.0    0.016    0.017   24.444   24.445
 qs_mol_dyn_low                       1  2.0    0.005    0.007   24.202   24.263
 velocity_verlet                    100  3.0    0.019    0.022   23.605   23.669
 nnp_calc_energy_force              101  4.0    0.369    0.406   20.715   20.718
 nnp_calc_acsf                    34542  5.0    0.841    0.962   15.081   19.884
 nnp_acsf_angular                 34542  6.0   13.488   18.090   13.488   18.090
 mp_sum_dm                          301  5.0    5.123    8.276    5.123    8.276
 csvr_particles                     200  4.0    0.595    0.604    2.693    2.756
 md_output                          100  3.0    0.000    0.000    0.356    2.462
 mp_sum_dv                          609  4.4    2.197    2.269    2.197    2.269
 md_write_output                    101  4.0    0.011    0.204    0.068    2.001
 write_trajectory                   404  5.0    0.004    0.006    0.054    1.794
 write_particle_coordinates         101  6.0    0.050    1.788    0.050    1.788
 nnp_acsf_radial                  34542  6.0    0.752    0.832    0.752    0.832
 -------------------------------------------------------------------------------

 The number of warnings for this run is : 0
 
 -------------------------------------------------------------------------------
  **** **** ******  **  PROGRAM ENDED AT                 2026-05-04 17:36:25.763
 ***** ** ***  *** **   PROGRAM RAN ON                             phy-cerberus4
 **    ****   ******    PROGRAM RAN BY                                     crm98
 ***** **    ** ** **   PROGRAM PROCESS ID                               1783718
  **** **  *******  **  PROGRAM STOPPED IN /local/data/public/crm98/cp2k-benchma
                                           rks/results/cp2k_feature_native_splin
                                           e/NNP/NNP_size_scaling_feature-nnp-na
                                           tive-spline_04-05_17-35/N_4096
