 DBCSR| CPU Multiplication driver                                           XSMM (U)
 DBCSR| Multrec recursion limit                                              512 (U)
 DBCSR| Multiplication stack size                                           1000 (D)
 DBCSR| Maximum elements for images                                    UNLIMITED (U)
 DBCSR| Multiplicative factor virtual images                                   1 (U)
 DBCSR| Use multiplication densification                                       T (D)
 DBCSR| Multiplication size stacks                                             3 (U)
 DBCSR| Use memory pool for CPU allocation                                     F (U)
 DBCSR| Number of 3D layers                                               SINGLE (U)
 DBCSR| Use MPI memory allocation                                              F (U)
 DBCSR| Use RMA algorithm                                                      F (U)
 DBCSR| Use Communication thread                                               T (U)
 DBCSR| Communication thread load                                             87 (D)
 DBCSR| MPI: My process id                                                     0
 DBCSR| MPI: Number of processes                                              32
 DBCSR| OMP: Current number of threads                                         1
 DBCSR| OMP: Max number of threads                                             1
 DBCSR| Split modifier for TAS multiplication algorithm                  1.0E+00 (U)


  **** **** ******  **  PROGRAM STARTED AT               2026-04-30 04:03:40.608
 ***** ** ***  *** **   PROGRAM STARTED ON                         phy-cerberus4
 **    ****   ******    PROGRAM STARTED BY                                 crm98
 ***** **    ** ** **   PROGRAM PROCESS ID                                870981
  **** **  *******  **  PROGRAM STARTED IN /lsc/zeushome/crm98/cp2k_benchmarks/c
                                           p2k_optimized/NNP/NNP_size_scaling_fe
                                           ature-nnp-verlet-cells_30-04_04-02/N_
                                           4096

 CP2K| version string:                 CP2K version 2026.1 (Development Version)
 CP2K| source code revision number:                                   151b7d1223
 CP2K| cp2kflags: omp libint fftw3 libxc parallel scalapack mpi_f08 cosma ace de
 CP2K|            epmd xsmm plumed2 spglib libdftd4 dftd4_v3 mctc-lib tblite lib
 CP2K|            bvori libbqb libtorch mimic hdf5 trexio libsmeagol greenx
 CP2K| is freely available from                            https://www.cp2k.org/
 CP2K| Program compiled at                                   2026-04-29 19:17:47
 CP2K| Program compiled on                                         phy-cerberus4
 CP2K| Program compiled for                                               x86_64
 CP2K| Data directory path           /local/data/public/crm98/original_cp2k/data
 CP2K| Input file name                                                   run.inp

 GLOBAL| Force Environment number                                              1
 GLOBAL| Basis set file name                                           BASIS_SET
 GLOBAL| Potential file name                                           POTENTIAL
 GLOBAL| MM Potential file name                                     MM_POTENTIAL
 GLOBAL| Coordinate file name                                      __STD_INPUT__
 GLOBAL| Method name                                                        CP2K
 GLOBAL| Project name                                              H2O-64_NNP_MD
 GLOBAL| Run type                                                             MD
 GLOBAL| FFT library                                                       FFTW3
 GLOBAL| Diagonalization library                                       ScaLAPACK
 GLOBAL| Cholesky decomposition library                                ScaLAPACK
 GLOBAL| DGEMM library                                                      BLAS
 GLOBAL| Orthonormality check for eigenvectors                          DISABLED
 GLOBAL| Matrix multiplication library                                     COSMA
 GLOBAL| All-to-all communication in single precision                          F
 GLOBAL| FFTs using library dependent lengths                                  F
 GLOBAL| Grid backend                                                       AUTO
 GLOBAL| Global print level                                                  LOW
 GLOBAL| MPI I/O enabled                                                       T
 GLOBAL| Total number of message passing processes                            32
 GLOBAL| Number of distributed systems (nodes)                                 1
 GLOBAL| Number of threads for this process                                    1
 GLOBAL| This output is from process                                           0
 GLOBAL| OpenMP stack size per thread (OMP_STACKSIZE)                    default
 GLOBAL| CPU model name                              Intel(R) Xeon(R) Gold 5418Y
 GLOBAL| CPUID                                                              1003

 MEMORY| system memory details [Kb]
 MEMORY|                        rank 0           min           max       average
 MEMORY| MemTotal            263594404     263594404     263594404     263594404
 MEMORY| MemFree              60364072      60364072      60364072      60364072
 MEMORY| Buffers               2790928       2790928       2790928       2790928
 MEMORY| Cached              183031908     183031908     183031908     183031908
 MEMORY| Slab                  9782236       9782236       9782236       9782236
 MEMORY| SReclaimable          8163108       8163108       8163108       8163108
 MEMORY| MemLikelyFree       254350016     254350016     254350016     254350016


 GENERATE|  Preliminary Number of Bonds generated:                             0
 GENERATE|  Achieved consistency in connectivity generation.
 
 NNP| Neural Network Potential Force Environment
 NNP| Reading NNP input from file: NNP/bulkH2O-jcp2020-cnnp/nnp-1/input.nn
 NNP| Activation functions:  1  1  3
 NNP| short range atomic symmetry functions element H :
 NNP|   1 H   2 H             0.001  0.000 12.000
 NNP|   2 H   2 O             0.001  0.000 12.000
 NNP|   3 H   2 H             0.010  0.000 12.000
 NNP|   4 H   2 O             0.010  0.000 12.000
 NNP|   5 H   2 H             0.030  0.000 12.000
 NNP|   6 H   2 O             0.030  0.000 12.000
 NNP|   7 H   2 H             0.060  0.000 12.000
 NNP|   8 H   2 O             0.060  0.000 12.000
 NNP|   9 H   2 O             0.150  0.900 12.000
 NNP|  10 H   2 H             0.150  1.900 12.000
 NNP|  11 H   2 O             0.300  0.900 12.000
 NNP|  12 H   2 H             0.300  1.900 12.000
 NNP|  13 H   2 O             0.600  0.900 12.000
 NNP|  14 H   2 H             0.600  1.900 12.000
 NNP|  15 H   2 O             1.500  0.900 12.000
 NNP|  16 H   2 H             1.500  1.900 12.000
 NNP|   1 H   3 O  O   0.001 -1.000  4.000 12.000
 NNP|   2 H   3 O  O   0.001  1.000  4.000 12.000
 NNP|   3 H   3 H  O   0.010 -1.000  4.000 12.000
 NNP|   4 H   3 H  O   0.010  1.000  4.000 12.000
 NNP|   5 H   3 H  O   0.030 -1.000  1.000 12.000
 NNP|   6 H   3 O  O   0.030 -1.000  1.000 12.000
 NNP|   7 H   3 H  O   0.030  1.000  1.000 12.000
 NNP|   8 H   3 O  O   0.030  1.000  1.000 12.000
 NNP|   9 H   3 H  O   0.070 -1.000  1.000 12.000
 NNP|  10 H   3 H  O   0.070  1.000  1.000 12.000
 NNP|  11 H   3 H  O   0.200  1.000  1.000 12.000
 NNP| short range atomic symmetry functions element O :
 NNP|   1 O   2 H             0.001  0.000 12.000
 NNP|   2 O   2 O             0.001  0.000 12.000
 NNP|   3 O   2 H             0.010  0.000 12.000
 NNP|   4 O   2 O             0.010  0.000 12.000
 NNP|   5 O   2 H             0.030  0.000 12.000
 NNP|   6 O   2 O             0.030  0.000 12.000
 NNP|   7 O   2 H             0.060  0.000 12.000
 NNP|   8 O   2 O             0.060  0.000 12.000
 NNP|   9 O   2 H             0.150  0.900 12.000
 NNP|  10 O   2 O             0.150  4.000 12.000
 NNP|  11 O   2 H             0.300  0.900 12.000
 NNP|  12 O   2 O             0.300  4.000 12.000
 NNP|  13 O   2 H             0.600  0.900 12.000
 NNP|  14 O   2 O             0.600  4.000 12.000
 NNP|  15 O   2 H             1.500  0.900 12.000
 NNP|  16 O   2 O             1.500  4.000 12.000
 NNP|   1 O   3 H  O   0.001 -1.000  4.000 12.000
 NNP|   2 O   3 O  O   0.001 -1.000  4.000 12.000
 NNP|   3 O   3 H  O   0.001  1.000  4.000 12.000
 NNP|   4 O   3 O  O   0.001  1.000  4.000 12.000
 NNP|   5 O   3 H  H   0.010 -1.000  4.000 12.000
 NNP|   6 O   3 H  H   0.010  1.000  4.000 12.000
 NNP|   7 O   3 H  H   0.030 -1.000  1.000 12.000
 NNP|   8 O   3 H  O   0.030 -1.000  1.000 12.000
 NNP|   9 O   3 O  O   0.030 -1.000  1.000 12.000
 NNP|  10 O   3 H  H   0.030  1.000  1.000 12.000
 NNP|  11 O   3 H  O   0.030  1.000  1.000 12.000
 NNP|  12 O   3 O  O   0.030  1.000  1.000 12.000
 NNP|  13 O   3 H  H   0.070 -1.000  1.000 12.000
 NNP|  14 O   3 H  H   0.070  1.000  1.000 12.000
 NNP| Neural network specification for element H :
 NNP|  27 nodes in layer  1
 NNP|  20 nodes in layer  2
 NNP|  20 nodes in layer  3
 NNP|   1 nodes in layer  4
 NNP| Neural network specification for element O :
 NNP|  30 nodes in layer  1
 NNP|  20 nodes in layer  2
 NNP|  20 nodes in layer  3
 NNP|   1 nodes in layer  4
 NNP| Reading scaling information from file: NNP/bulkH2O-jcp2020-cnnp/nnp-1/input.nn
 NNP| Initializing weights for model:            1
 NNP| Reading weights from file: NNP/bulkH2O-jcp2020-cnnp/nnp-1/weights.001.data
 NNP| Reading weights from file: NNP/bulkH2O-jcp2020-cnnp/nnp-1/weights.008.data
 NNP| NNP force environment initialized

 MD_PAR| Molecular dynamics protocol (MD input parameters)
 MD_PAR| Ensemble type                                                       NVT
 MD_PAR| Number of time steps                                                100
 MD_PAR| Time step [fs]                                                 0.500000
 MD_PAR| Temperature [K]                                              300.000000
 MD_PAR| Temperature tolerance [K]                                      0.000000
 MD_PAR| Print MD information every                                    1 step(s)
 MD_PAR| File type   Print frequency [steps]                          File names
 MD_PAR| Coordinates          1                          H2O-64_NNP_MD-pos-1.xyz
 MD_PAR| Velocities           1                          H2O-64_NNP_MD-vel-1.xyz
 MD_PAR| Energies             1                             H2O-64_NNP_MD-1.ener
 MD_PAR| Dump                20                          H2O-64_NNP_MD-1.restart

 ROT| Rotational analysis information
 ROT| Principal axes and moments of inertia [a.u.]
 ROT|                           1                   2                   3
 ROT| Eigenvalues      2.51836669954E+11   2.65917082058E+11   2.73849094965E+11
 ROT|      x              0.926985305794      0.086790597640      0.364918669024
 ROT|      y             -0.318278247060      0.696798663376      0.642783462891
 ROT|      z             -0.198487279920     -0.711996499204      0.673545681325
 ROT| Number of rotovibrational vectors                                        6

 DOF| Calculation of degrees of freedom
 DOF| Number of atoms                                                      12288
 DOF| Number of intramolecular constraints                                     0
 DOF| Number of intermolecular constraints                                     0
 DOF| Invariants (translations + rotations)                                    3
 DOF| Degrees of freedom                                                   36861

 DOF| Restraints information
 DOF| Number of intramolecular restraints                                      0
 DOF| Number of intermolecular restraints                                      0

 THERMOSTAT| Thermostat information for PARTICLES
 THERMOSTAT| Type of thermostat            Canonical Sampling/Velocity Rescaling
 THERMOSTAT| CSVR time constant [fs]                                   30.000000
 THERMOSTAT| Initial kinetic energy                           0.000000000000E+00
 THERMOSTAT| End of thermostat information for PARTICLES

 MD_VEL| Velocities initialization
 MD_VEL| Initial temperature [K]                                      300.000000
 MD_VEL| COM velocity             0.0000000000     0.0000000000     0.0000000000

 ENERGY| Total FORCE_EVAL ( NNP ) energy [hartree]        240114.346473270416027

 MD_INI| MD initialization
 MD_INI| Potential energy [hartree]                           0.240114346473E+06
 MD_INI| Kinetic energy [hartree]                             0.175097970553E+02
 MD_INI| Temperature [K]                                              300.000000
 MD_INI| Cell volume [bohr^3]                                 8.274492531766E+05
 MD_INI| Cell volume [ang^3]                                  1.226153272320E+05
 MD_INI| Cell lengths [bohr]      9.38815943E+01  9.38815943E+01  9.38815943E+01
 MD_INI| Cell lengths [ang]       4.96800000E+01  4.96800000E+01  4.96800000E+01
 MD_INI| Cell angles [deg]        9.00000000E+01  9.00000000E+01  9.00000000E+01

 ENERGY| Total FORCE_EVAL ( NNP ) energy [hartree]        240112.346370736690005

 MD| ***************************************************************************
 MD| Step number                                                               1
 MD| Time [fs]                                                          0.500000
 MD| Conserved quantity [hartree]                             0.240130948755E+06
 MD| ---------------------------------------------------------------------------
 MD|                                          Instantaneous             Averages
 MD| CPU time per MD step [s]                      0.711245             0.711245
 MD| Energy drift per atom [K]          -0.233211649366E+02   0.000000000000E+00
 MD| Potential energy [hartree]          0.240112346371E+06   0.240112346371E+06
 MD| Kinetic energy [hartree]            0.185703179582E+02   0.185703179582E+02
 MD| Temperature [K]                             318.170186           318.170186
 MD| ***************************************************************************
 MD| Estimated peak process memory after this step [MiB]                     302

 ENERGY| Total FORCE_EVAL ( NNP ) energy [hartree]        240109.817853486019885

 MD| ***************************************************************************
 MD| Step number                                                               2
 MD| Time [fs]                                                          1.000000
 MD| Conserved quantity [hartree]                             0.240130969380E+06
 MD| ---------------------------------------------------------------------------
 MD|                                          Instantaneous             Averages
 MD| CPU time per MD step [s]                      0.305031             0.508138
 MD| Energy drift per atom [K]          -0.227911457414E+02  -0.113955728707E+02
 MD| Potential energy [hartree]          0.240109817853E+06   0.240111082112E+06
 MD| Kinetic energy [hartree]            0.211089912223E+02   0.198396545903E+02
 MD| Temperature [K]                             361.665949           339.918067
 MD| ***************************************************************************
 MD| Estimated peak process memory after this step [MiB]                     302

 ENERGY| Total FORCE_EVAL ( NNP ) energy [hartree]        240108.256408125831513

 MD| ***************************************************************************
 MD| Step number                                                               3
 MD| Time [fs]                                                          1.500000
 MD| Conserved quantity [hartree]                             0.240131543511E+06
 MD| ---------------------------------------------------------------------------
 MD|                                          Instantaneous             Averages
 MD| CPU time per MD step [s]                      0.317595             0.444624
 MD| Energy drift per atom [K]          -0.803722106733E+01  -0.102761222696E+02
 MD| Potential energy [hartree]          0.240108256408E+06   0.240110140211E+06
 MD| Kinetic energy [hartree]            0.231698670234E+02   0.209497254013E+02
 MD| Temperature [K]                             396.975481           358.937205
 MD| ***************************************************************************
 MD| Estimated peak process memory after this step [MiB]                     302

 ENERGY| Total FORCE_EVAL ( NNP ) energy [hartree]        240108.540213641535956

 MD| ***************************************************************************
 MD| Step number                                                               4
 MD| Time [fs]                                                          2.000000
 MD| Conserved quantity [hartree]                             0.240131871159E+06
 MD| ---------------------------------------------------------------------------
 MD|                                          Instantaneous             Averages
 MD| CPU time per MD step [s]                      0.274408             0.402070
 MD| Energy drift per atom [K]           0.382611827422E+00  -0.761143874532E+01
 MD| Potential energy [hartree]          0.240108540214E+06   0.240109740211E+06
 MD| Kinetic energy [hartree]            0.231194264040E+02   0.214921506520E+02
 MD| Temperature [K]                             396.111268           368.230721
 MD| ***************************************************************************
 MD| Estimated peak process memory after this step [MiB]                     302

 ENERGY| Total FORCE_EVAL ( NNP ) energy [hartree]        240110.918466834787978

 MD| ***************************************************************************
 MD| Step number                                                               5
 MD| Time [fs]                                                          2.500000
 MD| Conserved quantity [hartree]                             0.240134430732E+06
 MD| ---------------------------------------------------------------------------
 MD|                                          Instantaneous             Averages
 MD| CPU time per MD step [s]                      0.258382             0.373332
 MD| Energy drift per atom [K]           0.661580163948E+02   0.714245228270E+01
 MD| Potential energy [hartree]          0.240110918467E+06   0.240109975863E+06
 MD| Kinetic energy [hartree]            0.232467858757E+02   0.218430776967E+02
 MD| Temperature [K]                             398.293352           374.243247
 MD| ***************************************************************************
 MD| Estimated peak process memory after this step [MiB]                     302

 ENERGY| Total FORCE_EVAL ( NNP ) energy [hartree]        240107.272458032879513

 MD| ***************************************************************************
 MD| Step number                                                               6
 MD| Time [fs]                                                          3.000000
 MD| Conserved quantity [hartree]                             0.240134287301E+06
 MD| ---------------------------------------------------------------------------
 MD|                                          Instantaneous             Averages
 MD| CPU time per MD step [s]                      0.254015             0.353446
 MD| Energy drift per atom [K]           0.624721538234E+02   0.163640692061E+02
 MD| Potential energy [hartree]          0.240107272458E+06   0.240109525295E+06
 MD| Kinetic energy [hartree]            0.266086432852E+02   0.226373386281E+02
 MD| Temperature [K]                             455.892947           387.851531
 MD| ***************************************************************************
 MD| Estimated peak process memory after this step [MiB]                     302

 ENERGY| Total FORCE_EVAL ( NNP ) energy [hartree]        240101.368616338266293

 MD| ***************************************************************************
 MD| Step number                                                               7
 MD| Time [fs]                                                          3.500000
 MD| Conserved quantity [hartree]                             0.240133114596E+06
 MD| ---------------------------------------------------------------------------
 MD|                                          Instantaneous             Averages
 MD| CPU time per MD step [s]                      0.256136             0.339545
 MD| Energy drift per atom [K]           0.323362110957E+02   0.186458037618E+02
 MD| Potential energy [hartree]          0.240101368616E+06   0.240108360055E+06
 MD| Kinetic energy [hartree]            0.311229626508E+02   0.238495706314E+02
 MD| Temperature [K]                             533.237979           408.621023
 MD| ***************************************************************************
 MD| Estimated peak process memory after this step [MiB]                     302

 ENERGY| Total FORCE_EVAL ( NNP ) energy [hartree]        240097.292836133419769

 MD| ***************************************************************************
 MD| Step number                                                               8
 MD| Time [fs]                                                          4.000000
 MD| Conserved quantity [hartree]                             0.240132011949E+06
 MD| ---------------------------------------------------------------------------
 MD|                                          Instantaneous             Averages
 MD| CPU time per MD step [s]                      0.258454             0.329408
 MD| Energy drift per atom [K]           0.400061300730E+01   0.168151549175E+02
 MD| Potential energy [hartree]          0.240097292836E+06   0.240106976653E+06
 MD| Kinetic energy [hartree]            0.338666835679E+02   0.251017097484E+02
 MD| Temperature [K]                             580.246878           430.074255
 MD| ***************************************************************************
 MD| Estimated peak process memory after this step [MiB]                     302

 ENERGY| Total FORCE_EVAL ( NNP ) energy [hartree]        240096.588508934335550

 MD| ***************************************************************************
 MD| Step number                                                               9
 MD| Time [fs]                                                          4.500000
 MD| Conserved quantity [hartree]                             0.240133111103E+06
 MD| ---------------------------------------------------------------------------
 MD|                                          Instantaneous             Averages
 MD| CPU time per MD step [s]                      0.264549             0.322202
 MD| Energy drift per atom [K]           0.322464575984E+02   0.185297441043E+02
 MD| Potential energy [hartree]          0.240096588509E+06   0.240105822415E+06
 MD| Kinetic energy [hartree]            0.353548773430E+02   0.262409505923E+02
 MD| Temperature [K]                             605.744497           449.593171
 MD| ***************************************************************************
 MD| Estimated peak process memory after this step [MiB]                     302

 ENERGY| Total FORCE_EVAL ( NNP ) energy [hartree]        240095.868560335540678

 MD| ***************************************************************************
 MD| Step number                                                              10
 MD| Time [fs]                                                          5.000000
 MD| Conserved quantity [hartree]                             0.240134364320E+06
 MD| ---------------------------------------------------------------------------
 MD|                                          Instantaneous             Averages
 MD| CPU time per MD step [s]                      0.265100             0.316492
 MD| Energy drift per atom [K]           0.644513801334E+02   0.231219077072E+02
 MD| Potential energy [hartree]          0.240095868560E+06   0.240104827029E+06
 MD| Kinetic energy [hartree]            0.370503334803E+02   0.273218888811E+02
 MD| Temperature [K]                             634.793197           468.113173
 MD| ***************************************************************************
 MD| Estimated peak process memory after this step [MiB]                     302

 ENERGY| Total FORCE_EVAL ( NNP ) energy [hartree]        240099.193747315352084

 MD| ***************************************************************************
 MD| Step number                                                              11
 MD| Time [fs]                                                          5.500000
 MD| Conserved quantity [hartree]                             0.240140125234E+06
 MD| ---------------------------------------------------------------------------
 MD|                                          Instantaneous             Averages
 MD| CPU time per MD step [s]                      0.260550             0.311406
 MD| Energy drift per atom [K]           0.212494216879E+03   0.403375721773E+02
 MD| Potential energy [hartree]          0.240099193747E+06   0.240104314913E+06
 MD| Kinetic energy [hartree]            0.391172082178E+02   0.283941906390E+02
 MD| Temperature [K]                             670.205510           486.485204
 MD| ***************************************************************************
 MD| Estimated peak process memory after this step [MiB]                     302

 ENERGY| Total FORCE_EVAL ( NNP ) energy [hartree]        240092.856648745684652

 MD| ***************************************************************************
 MD| Step number                                                              12
 MD| Time [fs]                                                          6.000000
 MD| Conserved quantity [hartree]                             0.240142769222E+06
 MD| ---------------------------------------------------------------------------
 MD|                                          Instantaneous             Averages
 MD| CPU time per MD step [s]                      0.261198             0.307222
 MD| Energy drift per atom [K]           0.280438918163E+03   0.603460176761E+02
 MD| Potential energy [hartree]          0.240092856649E+06   0.240103360057E+06
 MD| Kinetic energy [hartree]            0.476451199070E+02   0.299984347446E+02
 MD| Temperature [K]                             816.316484           513.971144
 MD| ***************************************************************************
 MD| Estimated peak process memory after this step [MiB]                     302

 ENERGY| Total FORCE_EVAL ( NNP ) energy [hartree]        240100.111470598465530

 MD| ***************************************************************************
 MD| Step number                                                              13
 MD| Time [fs]                                                          6.500000
 MD| Conserved quantity [hartree]                             0.240170409846E+06
 MD| ---------------------------------------------------------------------------
 MD|                                          Instantaneous             Averages
 MD| CPU time per MD step [s]                      0.260782             0.303650
 MD| Energy drift per atom [K]           0.990742331336E+03   0.131914964881E+03
 MD| Potential energy [hartree]          0.240100111471E+06   0.240103110166E+06
 MD| Kinetic energy [hartree]            0.673120489436E+02   0.328687127599E+02
 MD| Temperature [K]                            1153.275199           563.148379
 MD| ***************************************************************************
 MD| Estimated peak process memory after this step [MiB]                     302

 ENERGY| Total FORCE_EVAL ( NNP ) energy [hartree]        240094.600133153056959

 MD| ***************************************************************************
 MD| Step number                                                              14
 MD| Time [fs]                                                          7.000000
 MD| Conserved quantity [hartree]                             0.240174434785E+06
 MD| ---------------------------------------------------------------------------
 MD|                                          Instantaneous             Averages
 MD| CPU time per MD step [s]                      0.264347             0.300842
 MD| Energy drift per atom [K]           0.109417444658E+04   0.200647785002E+03
 MD| Potential energy [hartree]          0.240094600133E+06   0.240102502307E+06
 MD| Kinetic energy [hartree]            0.759611367645E+02   0.359467430460E+02
 MD| Temperature [K]                            1301.462316           615.885089
 MD| ***************************************************************************
 MD| Estimated peak process memory after this step [MiB]                     302

 ENERGY| Total FORCE_EVAL ( NNP ) energy [hartree]        240089.269585861969972

 MD| ***************************************************************************
 MD| Step number                                                              15
 MD| Time [fs]                                                          7.500000
 MD| Conserved quantity [hartree]                             0.240181347687E+06
 MD| ---------------------------------------------------------------------------
 MD|                                          Instantaneous             Averages
 MD| CPU time per MD step [s]                      0.254690             0.297766
 MD| Energy drift per atom [K]           0.127182086673E+04   0.272059323784E+03
 MD| Potential energy [hartree]          0.240089269586E+06   0.240101620125E+06
 MD| Kinetic energy [hartree]            0.871609079335E+02   0.393610207052E+02
 MD| Temperature [K]                            1493.350968           674.382814
 MD| ***************************************************************************
 MD| Estimated peak process memory after this step [MiB]                     302

 ENERGY| Total FORCE_EVAL ( NNP ) energy [hartree]        240089.557299026608234

 MD| ***************************************************************************
 MD| Step number                                                              16
 MD| Time [fs]                                                          8.000000
 MD| Conserved quantity [hartree]                             0.240243124873E+06
 MD| ---------------------------------------------------------------------------
 MD|                                          Instantaneous             Averages
 MD| CPU time per MD step [s]                      0.256950             0.295215
 MD| Energy drift per atom [K]           0.285935903762E+04   0.433765555899E+03
 MD| Potential energy [hartree]          0.240089557299E+06   0.240100866199E+06
 MD| Kinetic energy [hartree]            0.147023946857E+03   0.460899535897E+02
 MD| Temperature [K]                            2519.000301           789.671407
 MD| ***************************************************************************
 MD| Estimated peak process memory after this step [MiB]                     302

 ENERGY| Total FORCE_EVAL ( NNP ) energy [hartree]        240070.439245761779603

 MD| ***************************************************************************
 MD| Step number                                                              17
 MD| Time [fs]                                                          8.500000
 MD| Conserved quantity [hartree]                             0.240250640235E+06
 MD| ---------------------------------------------------------------------------
 MD|                                          Instantaneous             Averages
 MD| CPU time per MD step [s]                      0.259460             0.293111
 MD| Energy drift per atom [K]           0.305248734665E+04   0.587808014179E+03
 MD| Potential energy [hartree]          0.240070439246E+06   0.240099076378E+06
 MD| Kinetic energy [hartree]            0.171274050501E+03   0.534537239962E+02
 MD| Temperature [K]                            2934.483763           915.836840
 MD| ***************************************************************************
 MD| Estimated peak process memory after this step [MiB]                     302

 ENERGY| Total FORCE_EVAL ( NNP ) energy [hartree]        240089.864406240289100

 MD| ***************************************************************************
 MD| Step number                                                              18
 MD| Time [fs]                                                          9.000000
 MD| Conserved quantity [hartree]                             0.240346096542E+06
 MD| ---------------------------------------------------------------------------
 MD|                                          Instantaneous             Averages
 MD| CPU time per MD step [s]                      0.261558             0.291358
 MD| Energy drift per atom [K]           0.550550507363E+04   0.861013406370E+03
 MD| Potential energy [hartree]          0.240089864406E+06   0.240098564602E+06
 MD| Kinetic energy [hartree]            0.244026433491E+03   0.640410967459E+02
 MD| Temperature [K]                            4180.969649          1097.233107
 MD| ***************************************************************************
 MD| Estimated peak process memory after this step [MiB]                     302

 ENERGY| Total FORCE_EVAL ( NNP ) energy [hartree]        240081.980320972739719

 MD| ***************************************************************************
 MD| Step number                                                              19
 MD| Time [fs]                                                          9.500000
 MD| Conserved quantity [hartree]                             0.240368683810E+06
 MD| ---------------------------------------------------------------------------
 MD|                                          Instantaneous             Averages
 MD| CPU time per MD step [s]                      0.262995             0.289866
 MD| Energy drift per atom [K]           0.608594830725E+04   0.113600998010E+04
 MD| Potential energy [hartree]          0.240081980321E+06   0.240097691745E+06
 MD| Kinetic energy [hartree]            0.270624005543E+03   0.749138814194E+02
 MD| Temperature [K]                            4636.672910          1283.519412
 MD| ***************************************************************************
 MD| Estimated peak process memory after this step [MiB]                     302

 ENERGY| Total FORCE_EVAL ( NNP ) energy [hartree]        240102.088055755972164

 MD| ***************************************************************************
 MD| Step number                                                              20
 MD| Time [fs]                                                         10.000000
 MD| Conserved quantity [hartree]                             0.240430066045E+06
 MD| ---------------------------------------------------------------------------
 MD|                                          Instantaneous             Averages
 MD| CPU time per MD step [s]                      0.256581             0.288201
 MD| Energy drift per atom [K]           0.766333713073E+04   0.146237633763E+04
 MD| Potential energy [hartree]          0.240102088056E+06   0.240097911560E+06
 MD| Kinetic energy [hartree]            0.307360646245E+03   0.865362196607E+02
 MD| Temperature [K]                            5266.091525          1482.648018
 MD| ***************************************************************************
 MD| Estimated peak process memory after this step [MiB]                     302

 ENERGY| Total FORCE_EVAL ( NNP ) energy [hartree]        240099.261423861404182

 MD| ***************************************************************************
 MD| Step number                                                              21
 MD| Time [fs]                                                         10.500000
 MD| Conserved quantity [hartree]                             0.240462903755E+06
 MD| ---------------------------------------------------------------------------
 MD|                                          Instantaneous             Averages
 MD| CPU time per MD step [s]                      0.382073             0.292671
 MD| Energy drift per atom [K]           0.850719423838E+04   0.179784385672E+04
 MD| Potential energy [hartree]          0.240099261424E+06   0.240097975840E+06
 MD| Kinetic energy [hartree]            0.337923687058E+03   0.985070514415E+02
 MD| Temperature [K]                            5789.736214          1687.747456
 MD| ***************************************************************************
 MD| Estimated peak process memory after this step [MiB]                     310

 ENERGY| Total FORCE_EVAL ( NNP ) energy [hartree]        240080.736440314940410

 MD| ***************************************************************************
 MD| Step number                                                              22
 MD| Time [fs]                                                         11.000000
 MD| Conserved quantity [hartree]                             0.240513329430E+06
 MD| ---------------------------------------------------------------------------
 MD|                                          Instantaneous             Averages
 MD| CPU time per MD step [s]                      0.258446             0.291116
 MD| Energy drift per atom [K]           0.980302350527E+04   0.216171565892E+04
 MD| Potential energy [hartree]          0.240080736440E+06   0.240097192230E+06
 MD| Kinetic energy [hartree]            0.401071942622E+03   0.112260001041E+03
 MD| Temperature [K]                            6871.672036          1923.380391
 MD| ***************************************************************************
 MD| Estimated peak process memory after this step [MiB]                     310

 ENERGY| Total FORCE_EVAL ( NNP ) energy [hartree]        240090.062175571161788

 MD| ***************************************************************************
 MD| Step number                                                              23
 MD| Time [fs]                                                         11.500000
 MD| Conserved quantity [hartree]                             0.240616456130E+06
 MD| ---------------------------------------------------------------------------
 MD|                                          Instantaneous             Averages
 MD| CPU time per MD step [s]                      0.258281             0.289688
 MD| Energy drift per atom [K]           0.124531534916E+05   0.260916947773E+04
 MD| Potential energy [hartree]          0.240090062176E+06   0.240096882228E+06
 MD| Kinetic energy [hartree]            0.487857751342E+03   0.128590338010E+03
 MD| Temperature [K]                            8358.596330          2203.172389
 MD| ***************************************************************************
 MD| Estimated peak process memory after this step [MiB]                     310

 ENERGY| Total FORCE_EVAL ( NNP ) energy [hartree]        240087.957938649575226

 MD| ***************************************************************************
 MD| Step number                                                              24
 MD| Time [fs]                                                         12.000000
 MD| Conserved quantity [hartree]                             0.240670454364E+06
 MD| ---------------------------------------------------------------------------
 MD|                                          Instantaneous             Averages
 MD| CPU time per MD step [s]                      0.257270             0.288337
 MD| Energy drift per atom [K]           0.138407896616E+05   0.307715365206E+04
 MD| Potential energy [hartree]          0.240087957939E+06   0.240096510383E+06
 MD| Kinetic energy [hartree]            0.535841830489E+03   0.145559150197E+03
 MD| Temperature [K]                            9180.720293          2493.903551
 MD| ***************************************************************************
 MD| Estimated peak process memory after this step [MiB]                     310

 ENERGY| Total FORCE_EVAL ( NNP ) energy [hartree]        240080.566322842525551

 MD| ***************************************************************************
 MD| Step number                                                              25
 MD| Time [fs]                                                         12.500000
 MD| Conserved quantity [hartree]                             0.240713460015E+06
 MD| ---------------------------------------------------------------------------
 MD|                                          Instantaneous             Averages
 MD| CPU time per MD step [s]                      0.260132             0.287209
 MD| Energy drift per atom [K]           0.149459405563E+05   0.355190512823E+04
 MD| Potential energy [hartree]          0.240080566323E+06   0.240095872620E+06
 MD| Kinetic energy [hartree]            0.577357293371E+03   0.162831075924E+03
 MD| Temperature [K]                            9892.015736          2789.828039
 MD| ***************************************************************************
 MD| Estimated peak process memory after this step [MiB]                     310

 ENERGY| Total FORCE_EVAL ( NNP ) energy [hartree]        240070.938277963461587

 MD| ***************************************************************************
 MD| Step number                                                              26
 MD| Time [fs]                                                         13.000000
 MD| Conserved quantity [hartree]                             0.240835263964E+06
 MD| ---------------------------------------------------------------------------
 MD|                                          Instantaneous             Averages
 MD| CPU time per MD step [s]                      0.257630             0.286072
 MD| Energy drift per atom [K]           0.180760349073E+05   0.411052550435E+04
 MD| Potential energy [hartree]          0.240070938278E+06   0.240094913607E+06
 MD| Kinetic energy [hartree]            0.698570956846E+03   0.183436455959E+03
 MD| Temperature [K]                           11968.801602          3142.865483
 MD| ***************************************************************************
 MD| Estimated peak process memory after this step [MiB]                     310

 ENERGY| Total FORCE_EVAL ( NNP ) energy [hartree]        240080.553512300975854

 MD| ***************************************************************************
 MD| Step number                                                              27
 MD| Time [fs]                                                         13.500000
 MD| Conserved quantity [hartree]                             0.240978564133E+06
 MD| ---------------------------------------------------------------------------
 MD|                                          Instantaneous             Averages
 MD| CPU time per MD step [s]                      0.264167             0.285260
 MD| Energy drift per atom [K]           0.217585349396E+05   0.476415548343E+04
 MD| Potential energy [hartree]          0.240080553512E+06   0.240094381752E+06
 MD| Kinetic energy [hartree]            0.819786416129E+03   0.207004973003E+03
 MD| Temperature [K]                           14045.618237          3546.671141
 MD| ***************************************************************************
 MD| Estimated peak process memory after this step [MiB]                     310

 ENERGY| Total FORCE_EVAL ( NNP ) energy [hartree]        240083.637312397215283

 MD| ***************************************************************************
 MD| Step number                                                              28
 MD| Time [fs]                                                         14.000000
 MD| Conserved quantity [hartree]                             0.240989567806E+06
 MD| ---------------------------------------------------------------------------
 MD|                                          Instantaneous             Averages
 MD| CPU time per MD step [s]                      0.306771             0.286028
 MD| Energy drift per atom [K]           0.220413051818E+05   0.538119654409E+04
 MD| Potential energy [hartree]          0.240083637312E+06   0.240093998022E+06
 MD| Kinetic energy [hartree]            0.814552398925E+03   0.228703095357E+03
 MD| Temperature [K]                           13955.942431          3918.430830
 MD| ***************************************************************************
 MD| Estimated peak process memory after this step [MiB]                     310

 ENERGY| Total FORCE_EVAL ( NNP ) energy [hartree]        240077.359371550672222

 MD| ***************************************************************************
 MD| Step number                                                              29
 MD| Time [fs]                                                         14.500000
 MD| Conserved quantity [hartree]                             0.240990662680E+06
 MD| ---------------------------------------------------------------------------
 MD|                                          Instantaneous             Averages
 MD| CPU time per MD step [s]                      0.273591             0.285600
 MD| Energy drift per atom [K]           0.220694410627E+05   0.595665325163E+04
 MD| Potential energy [hartree]          0.240077359372E+06   0.240093424275E+06
 MD| Kinetic energy [hartree]            0.808820329059E+03   0.248707137898E+03
 MD| Temperature [K]                           13857.733356          4261.165400
 MD| ***************************************************************************
 MD| Estimated peak process memory after this step [MiB]                     310

 ENERGY| Total FORCE_EVAL ( NNP ) energy [hartree]        240074.040014732046984

 MD| ***************************************************************************
 MD| Step number                                                              30
 MD| Time [fs]                                                         15.000000
 MD| Conserved quantity [hartree]                             0.241017724023E+06
 MD| ---------------------------------------------------------------------------
 MD|                                          Instantaneous             Averages
 MD| CPU time per MD step [s]                      0.262404             0.284826
 MD| Energy drift per atom [K]           0.227648582014E+05   0.651692674995E+04
 MD| Potential energy [hartree]          0.240074040015E+06   0.240092778133E+06
 MD| Kinetic energy [hartree]            0.825893410477E+03   0.267946680318E+03
 MD| Temperature [K]                           14150.250992          4590.801586
 MD| ***************************************************************************
 MD| Estimated peak process memory after this step [MiB]                     310

 ENERGY| Total FORCE_EVAL ( NNP ) energy [hartree]        240070.531348474585684

 MD| ***************************************************************************
 MD| Step number                                                              31
 MD| Time [fs]                                                         15.500000
 MD| Conserved quantity [hartree]                             0.241050621799E+06
 MD| ---------------------------------------------------------------------------
 MD|                                          Instantaneous             Averages
 MD| CPU time per MD step [s]                      0.264658             0.284176
 MD| Energy drift per atom [K]           0.236102588875E+05   0.706832456084E+04
 MD| Potential energy [hartree]          0.240070531348E+06   0.240092060495E+06
 MD| Kinetic energy [hartree]            0.848650391043E+03   0.286679058083E+03
 MD| Temperature [K]                           14540.152379          4911.748386
 MD| ***************************************************************************
 MD| Estimated peak process memory after this step [MiB]                     310

 ENERGY| Total FORCE_EVAL ( NNP ) energy [hartree]        240053.171520872769179

 MD| ***************************************************************************
 MD| Step number                                                              32
 MD| Time [fs]                                                         16.000000
 MD| Conserved quantity [hartree]                             0.241127125834E+06
 MD| ---------------------------------------------------------------------------
 MD|                                          Instantaneous             Averages
 MD| CPU time per MD step [s]                      0.257259             0.283335
 MD| Energy drift per atom [K]           0.255762448062E+05   0.764669706851E+04
 MD| Potential energy [hartree]          0.240053171521E+06   0.240090845215E+06
 MD| Kinetic energy [hartree]            0.928112436980E+03   0.306723851174E+03
 MD| Temperature [K]                           15901.596701          5255.181146
 MD| ***************************************************************************
 MD| Estimated peak process memory after this step [MiB]                     310

 ENERGY| Total FORCE_EVAL ( NNP ) energy [hartree]        240049.551194195140852

 MD| ***************************************************************************
 MD| Step number                                                              33
 MD| Time [fs]                                                         16.500000
 MD| Conserved quantity [hartree]                             0.241217996445E+06
 MD| ---------------------------------------------------------------------------
 MD|                                          Instantaneous             Averages
 MD| CPU time per MD step [s]                      0.263815             0.282743
 MD| Energy drift per atom [K]           0.279114201833E+05   0.826077958714E+04
 MD| Potential energy [hartree]          0.240049551194E+06   0.240089593881E+06
 MD| Kinetic energy [hartree]            0.100682356401E+04   0.327938993987E+03
 MD| Temperature [K]                           17250.175330          5618.665818
 MD| ***************************************************************************
 MD| Estimated peak process memory after this step [MiB]                     310

 ENERGY| Total FORCE_EVAL ( NNP ) energy [hartree]        240061.336231798923109

 MD| ***************************************************************************
 MD| Step number                                                              34
 MD| Time [fs]                                                         17.000000
 MD| Conserved quantity [hartree]                             0.241300204112E+06
 MD| ---------------------------------------------------------------------------
 MD|                                          Instantaneous             Averages
 MD| CPU time per MD step [s]                      0.258278             0.282024
 MD| Energy drift per atom [K]           0.300239769072E+05   0.890087362596E+04
 MD| Potential energy [hartree]          0.240061336232E+06   0.240088762773E+06
 MD| Kinetic energy [hartree]            0.106042859934E+04   0.349482805909E+03
 MD| Temperature [K]                           18168.604627          5987.781665
 MD| ***************************************************************************
 MD| Estimated peak process memory after this step [MiB]                     310

 ENERGY| Total FORCE_EVAL ( NNP ) energy [hartree]        240063.235353367344942

 MD| ***************************************************************************
 MD| Step number                                                              35
 MD| Time [fs]                                                         17.500000
 MD| Conserved quantity [hartree]                             0.241339816148E+06
 MD| ---------------------------------------------------------------------------
 MD|                                          Instantaneous             Averages
 MD| CPU time per MD step [s]                      0.259369             0.281376
 MD| Energy drift per atom [K]           0.310419193591E+05   0.953347493262E+04
 MD| Potential energy [hartree]          0.240063235353E+06   0.240088033418E+06
 MD| Kinetic energy [hartree]            0.108053983196E+04   0.370370149510E+03
 MD| Temperature [K]                           18513.175713          6345.650067
 MD| ***************************************************************************
 MD| Estimated peak process memory after this step [MiB]                     310

 ENERGY| Total FORCE_EVAL ( NNP ) energy [hartree]        240045.391828264953801

 MD| ***************************************************************************
 MD| Step number                                                              36
 MD| Time [fs]                                                         18.000000
 MD| Conserved quantity [hartree]                             0.241377693796E+06
 MD| ---------------------------------------------------------------------------
 MD|                                          Instantaneous             Averages
 MD| CPU time per MD step [s]                      0.262360             0.280848
 MD| Energy drift per atom [K]           0.320152918353E+05   0.101579698466E+05
 MD| Potential energy [hartree]          0.240045391828E+06   0.240086848930E+06
 MD| Kinetic energy [hartree]            0.111820254678E+04   0.391143271657E+03
 MD| Temperature [K]                           19158.461002          6701.561482
 MD| ***************************************************************************
 MD| Estimated peak process memory after this step [MiB]                     310

 ENERGY| Total FORCE_EVAL ( NNP ) energy [hartree]        240041.181104933610186

 MD| ***************************************************************************
 MD| Step number                                                              37
 MD| Time [fs]                                                         18.500000
 MD| Conserved quantity [hartree]                             0.241465916056E+06
 MD| ---------------------------------------------------------------------------
 MD|                                          Instantaneous             Averages
 MD| CPU time per MD step [s]                      0.257389             0.280214
 MD| Energy drift per atom [K]           0.342824104082E+05   0.108099817537E+05
 MD| Potential energy [hartree]          0.240041181105E+06   0.240085614664E+06
 MD| Kinetic energy [hartree]            0.119123282976E+04   0.412767313768E+03
 MD| Temperature [K]                           20409.708222          7072.051934
 MD| ***************************************************************************
 MD| Estimated peak process memory after this step [MiB]                     310

 ENERGY| Total FORCE_EVAL ( NNP ) energy [hartree]        240019.832300829526503

 MD| ***************************************************************************
 MD| Step number                                                              38
 MD| Time [fs]                                                         19.000000
 MD| Conserved quantity [hartree]                             0.241487735607E+06
 MD| ---------------------------------------------------------------------------
 MD|                                          Instantaneous             Averages
 MD| CPU time per MD step [s]                      0.280724             0.280227
 MD| Energy drift per atom [K]           0.348431250100E+05   0.114424328920E+05
 MD| Potential energy [hartree]          0.240019832301E+06   0.240083883549E+06
 MD| Kinetic energy [hartree]            0.121432692729E+04   0.433860987808E+03
 MD| Temperature [K]                           20805.385524          7433.455450
 MD| ***************************************************************************
 MD| Estimated peak process memory after this step [MiB]                     310

 ENERGY| Total FORCE_EVAL ( NNP ) energy [hartree]        240017.948759377060924

 MD| ***************************************************************************
 MD| Step number                                                              39
 MD| Time [fs]                                                         19.500000
 MD| Conserved quantity [hartree]                             0.241560400332E+06
 MD| ---------------------------------------------------------------------------
 MD|                                          Instantaneous             Averages
 MD| CPU time per MD step [s]                      0.261198             0.279740
 MD| Energy drift per atom [K]           0.367104490508E+05   0.120903307422E+05
 MD| Potential energy [hartree]          0.240017948759E+06   0.240082192914E+06
 MD| Kinetic energy [hartree]            0.126838406638E+04   0.455259015464E+03
 MD| Temperature [K]                           21731.560835          7800.073536
 MD| ***************************************************************************
 MD| Estimated peak process memory after this step [MiB]                     310

 ENERGY| Total FORCE_EVAL ( NNP ) energy [hartree]        239984.088770502887201

 MD| ***************************************************************************
 MD| Step number                                                              40
 MD| Time [fs]                                                         20.000000
 MD| Conserved quantity [hartree]                             0.241617773621E+06
 MD| ---------------------------------------------------------------------------
 MD|                                          Instantaneous             Averages
 MD| CPU time per MD step [s]                      0.258810             0.279216
 MD| Energy drift per atom [K]           0.381848167489E+05   0.127426928924E+05
 MD| Potential energy [hartree]          0.239984088771E+06   0.240079740310E+06
 MD| Kinetic energy [hartree]            0.133823777447E+04   0.477333484439E+03
 MD| Temperature [K]                           22928.382955          8178.281272
 MD| ***************************************************************************
 MD| Estimated peak process memory after this step [MiB]                     310

 ENERGY| Total FORCE_EVAL ( NNP ) energy [hartree]        239997.255784349661553

 MD| ***************************************************************************
 MD| Step number                                                              41
 MD| Time [fs]                                                         20.500000
 MD| Conserved quantity [hartree]                             0.241742296694E+06
 MD| ---------------------------------------------------------------------------
 MD|                                          Instantaneous             Averages
 MD| CPU time per MD step [s]                      0.389649             0.281910
 MD| Energy drift per atom [K]           0.413847866111E+05   0.134412805441E+05
 MD| Potential energy [hartree]          0.239997255784E+06   0.240077728493E+06
 MD| Kinetic energy [hartree]            0.142687304979E+04   0.500492986033E+03
 MD| Temperature [K]                           24446.994650          8575.079159
 MD| ***************************************************************************
 MD| Estimated peak process memory after this step [MiB]                     310

 ENERGY| Total FORCE_EVAL ( NNP ) energy [hartree]        239971.384291548543843

 MD| ***************************************************************************
 MD| Step number                                                              42
 MD| Time [fs]                                                         21.000000
 MD| Conserved quantity [hartree]                             0.241806560791E+06
 MD| ---------------------------------------------------------------------------
 MD|                                          Instantaneous             Averages
 MD| CPU time per MD step [s]                      0.261626             0.281427
 MD| Energy drift per atom [K]           0.430362329285E+05   0.141459222675E+05
 MD| Potential energy [hartree]          0.239971384292E+06   0.240075196488E+06
 MD| Kinetic energy [hartree]            0.149286285871E+04   0.524120840144E+03
 MD| Temperature [K]                           25577.615560          8979.901454
 MD| ***************************************************************************
 MD| Estimated peak process memory after this step [MiB]                     310

 ENERGY| Total FORCE_EVAL ( NNP ) energy [hartree]        239960.229895543307066

 MD| ***************************************************************************
 MD| Step number                                                              43
 MD| Time [fs]                                                         21.500000
 MD| Conserved quantity [hartree]                             0.241925212116E+06
 MD| ---------------------------------------------------------------------------
 MD|                                          Instantaneous             Averages
 MD| CPU time per MD step [s]                      0.260420             0.280938
 MD| Energy drift per atom [K]           0.460853117554E+05   0.148886987672E+05
 MD| Potential energy [hartree]          0.239960229896E+06   0.240072522846E+06
 MD| Kinetic energy [hartree]            0.159683141494E+04   0.549067597698E+03
 MD| Temperature [K]                           27358.936427          9407.320872
 MD| ***************************************************************************
 MD| Estimated peak process memory after this step [MiB]                     310

 ENERGY| Total FORCE_EVAL ( NNP ) energy [hartree]        239953.812635953858262

 MD| ***************************************************************************
 MD| Step number                                                              44
 MD| Time [fs]                                                         22.000000
 MD| Conserved quantity [hartree]                             0.241978511619E+06
 MD| ---------------------------------------------------------------------------
 MD|                                          Instantaneous             Averages
 MD| CPU time per MD step [s]                      0.267306             0.280628
 MD| Energy drift per atom [K]           0.474549920590E+05   0.156288417966E+05
 MD| Potential energy [hartree]          0.239953812636E+06   0.240069824887E+06
 MD| Kinetic energy [hartree]            0.162992890190E+04   0.573632627338E+03
 MD| Temperature [K]                           27926.004455          9828.200045
 MD| ***************************************************************************
 MD| Estimated peak process memory after this step [MiB]                     310

 ENERGY| Total FORCE_EVAL ( NNP ) energy [hartree]        239901.886786592775024

 MD| ***************************************************************************
 MD| Step number                                                              45
 MD| Time [fs]                                                         22.500000
 MD| Conserved quantity [hartree]                             0.242013105244E+06
 MD| ---------------------------------------------------------------------------
 MD|                                          Instantaneous             Averages
 MD| CPU time per MD step [s]                      0.259618             0.280162
 MD| Energy drift per atom [K]           0.483439723602E+05   0.163558446980E+05
 MD| Potential energy [hartree]          0.239901886787E+06   0.240066092929E+06
 MD| Kinetic energy [hartree]            0.168915791869E+04   0.598422078257E+03
 MD| Temperature [K]                           28940.790919         10252.924286
 MD| ***************************************************************************
 MD| Estimated peak process memory after this step [MiB]                     310

 ENERGY| Total FORCE_EVAL ( NNP ) energy [hartree]        239852.974499093281338

 MD| ***************************************************************************
 MD| Step number                                                              46
 MD| Time [fs]                                                         23.000000
 MD| Conserved quantity [hartree]                             0.242080817250E+06
 MD| ---------------------------------------------------------------------------
 MD|                                          Instantaneous             Averages
 MD| CPU time per MD step [s]                      0.287225             0.280315
 MD| Energy drift per atom [K]           0.500840223924E+05   0.170890659522E+05
 MD| Potential energy [hartree]          0.239852974499E+06   0.240061459920E+06
 MD| Kinetic energy [hartree]            0.177741998305E+04   0.624052467492E+03
 MD| Temperature [K]                           30453.008292         10692.056547
 MD| ***************************************************************************
 MD| Estimated peak process memory after this step [MiB]                     310

 ENERGY| Total FORCE_EVAL ( NNP ) energy [hartree]        239843.864699172059773

 MD| ***************************************************************************
 MD| Step number                                                              47
 MD| Time [fs]                                                         23.500000
 MD| Conserved quantity [hartree]                             0.242244944278E+06
 MD| ---------------------------------------------------------------------------
 MD|                                          Instantaneous             Averages
 MD| CPU time per MD step [s]                      0.269380             0.280082
 MD| Energy drift per atom [K]           0.543017270197E+05   0.178808246983E+05
 MD| Potential energy [hartree]          0.239843864699E+06   0.240056830234E+06
 MD| Kinetic energy [hartree]            0.191983814617E+04   0.651622375549E+03
 MD| Temperature [K]                           32893.096478         11164.419099
 MD| ***************************************************************************
 MD| Estimated peak process memory after this step [MiB]                     310

 ENERGY| Total FORCE_EVAL ( NNP ) energy [hartree]        239827.710078714153497

 MD| ***************************************************************************
 MD| Step number                                                              48
 MD| Time [fs]                                                         24.000000
 MD| Conserved quantity [hartree]                             0.242474983720E+06
 MD| ---------------------------------------------------------------------------
 MD|                                          Instantaneous             Averages
 MD| CPU time per MD step [s]                      0.267728             0.279825
 MD| Energy drift per atom [K]           0.602132361248E+05   0.187627499364E+05
 MD| Potential energy [hartree]          0.239827710079E+06   0.240052056897E+06
 MD| Kinetic energy [hartree]            0.213278875437E+04   0.682480008441E+03
 MD| Temperature [K]                           36541.635765         11693.111113
 MD| ***************************************************************************
 MD| Estimated peak process memory after this step [MiB]                     310

 ENERGY| Total FORCE_EVAL ( NNP ) energy [hartree]        239776.403001583501464

 MD| ***************************************************************************
 MD| Step number                                                              49
 MD| Time [fs]                                                         24.500000
 MD| Conserved quantity [hartree]                             0.242566843021E+06
 MD| ---------------------------------------------------------------------------
 MD|                                          Instantaneous             Averages
 MD| CPU time per MD step [s]                      0.271075             0.279647
 MD| Energy drift per atom [K]           0.625738186610E+05   0.196568533797E+05
 MD| Potential energy [hartree]          0.239776403002E+06   0.240046431308E+06
 MD| Kinetic energy [hartree]            0.224040810856E+04   0.714274459464E+03
 MD| Temperature [K]                           38385.506722         12237.853880
 MD| ***************************************************************************
 MD| Estimated peak process memory after this step [MiB]                     310

 ENERGY| Total FORCE_EVAL ( NNP ) energy [hartree]        239745.223446515214164

 MD| ***************************************************************************
 MD| Step number                                                              50
 MD| Time [fs]                                                         25.000000
 MD| Conserved quantity [hartree]                             0.242847785922E+06
 MD| ---------------------------------------------------------------------------
 MD|                                          Instantaneous             Averages
 MD| CPU time per MD step [s]                      0.264921             0.279352
 MD| Energy drift per atom [K]           0.697934350241E+05   0.206595850126E+05
 MD| Potential energy [hartree]          0.239745223447E+06   0.240040407151E+06
 MD| Kinetic energy [hartree]            0.251327647152E+04   0.750254499705E+03
 MD| Temperature [K]                           43060.632803         12854.309459
 MD| ***************************************************************************
 MD| Estimated peak process memory after this step [MiB]                     310

 ENERGY| Total FORCE_EVAL ( NNP ) energy [hartree]        239760.129557077743812

 MD| ***************************************************************************
 MD| Step number                                                              51
 MD| Time [fs]                                                         25.500000
 MD| Conserved quantity [hartree]                             0.243028990378E+06
 MD| ---------------------------------------------------------------------------
 MD|                                          Instantaneous             Averages
 MD| CPU time per MD step [s]                      0.267903             0.279128
 MD| Energy drift per atom [K]           0.744499920795E+05   0.217142988767E+05
 MD| Potential energy [hartree]          0.239760129557E+06   0.240034911511E+06
 MD| Kinetic energy [hartree]            0.263705128832E+04   0.787250515168E+03
 MD| Temperature [K]                           45181.299589         13488.172010
 MD| ***************************************************************************
 MD| Estimated peak process memory after this step [MiB]                     310

 ENERGY| Total FORCE_EVAL ( NNP ) energy [hartree]        239734.398861270281486

 MD| ***************************************************************************
 MD| Step number                                                              52
 MD| Time [fs]                                                         26.000000
 MD| Conserved quantity [hartree]                             0.243148405895E+06
 MD| ---------------------------------------------------------------------------
 MD|                                          Instantaneous             Averages
 MD| CPU time per MD step [s]                      0.271262             0.278976
 MD| Energy drift per atom [K]           0.775187089414E+05   0.227874606087E+05
 MD| Potential energy [hartree]          0.239734398861E+06   0.240029132422E+06
 MD| Kinetic energy [hartree]            0.273747301742E+04   0.824754794058E+03
 MD| Temperature [K]                           46901.851725         14130.742774
 MD| ***************************************************************************
 MD| Estimated peak process memory after this step [MiB]                     310

 ENERGY| Total FORCE_EVAL ( NNP ) energy [hartree]        239670.595416098396527

 MD| ***************************************************************************
 MD| Step number                                                              53
 MD| Time [fs]                                                         26.500000
 MD| Conserved quantity [hartree]                             0.243299320348E+06
 MD| ---------------------------------------------------------------------------
 MD|                                          Instantaneous             Averages
 MD| CPU time per MD step [s]                      0.266812             0.278747
 MD| Energy drift per atom [K]           0.813968793903E+05   0.238932986989E+05
 MD| Potential energy [hartree]          0.239670595416E+06   0.240022367573E+06
 MD| Kinetic energy [hartree]            0.290560896660E+04   0.864016193540E+03
 MD| Temperature [K]                           49782.569565         14803.418751
 MD| ***************************************************************************
 MD| Estimated peak process memory after this step [MiB]                     310

 ENERGY| Total FORCE_EVAL ( NNP ) energy [hartree]        239644.765080037323060

 MD| ***************************************************************************
 MD| Step number                                                              54
 MD| Time [fs]                                                         27.000000
 MD| Conserved quantity [hartree]                             0.243444872555E+06
 MD| ---------------------------------------------------------------------------
 MD|                                          Instantaneous             Averages
 MD| CPU time per MD step [s]                      0.269177             0.278570
 MD| Energy drift per atom [K]           0.851372518470E+05   0.250274459794E+05
 MD| Potential energy [hartree]          0.239644765080E+06   0.240015374934E+06
 MD| Kinetic energy [hartree]            0.302758831653E+04   0.904082343966E+03
 MD| Temperature [K]                           51872.474141         15489.882740
 MD| ***************************************************************************
 MD| Estimated peak process memory after this step [MiB]                     310

 ENERGY| Total FORCE_EVAL ( NNP ) energy [hartree]        239581.276553559320746

 MD| ***************************************************************************
 MD| Step number                                                              55
 MD| Time [fs]                                                         27.500000
 MD| Conserved quantity [hartree]                             0.243592599371E+06
 MD| ---------------------------------------------------------------------------
 MD|                                          Instantaneous             Averages
 MD| CPU time per MD step [s]                      0.269991             0.278414
 MD| Energy drift per atom [K]           0.889335070159E+05   0.261893743619E+05
 MD| Potential energy [hartree]          0.239581276554E+06   0.240007482236E+06
 MD| Kinetic energy [hartree]            0.318761272572E+04   0.945601078179E+03
 MD| Temperature [K]                           54614.214813         16201.234232
 MD| ***************************************************************************
 MD| Estimated peak process memory after this step [MiB]                     310

 ENERGY| Total FORCE_EVAL ( NNP ) energy [hartree]        239489.118173469702015

 MD| ***************************************************************************
 MD| Step number                                                              56
 MD| Time [fs]                                                         28.000000
 MD| Conserved quantity [hartree]                             0.243686494508E+06
 MD| ---------------------------------------------------------------------------
 MD|                                          Instantaneous             Averages
 MD| CPU time per MD step [s]                      0.269611             0.278256
 MD| Energy drift per atom [K]           0.913464060863E+05   0.273528927856E+05
 MD| Potential energy [hartree]          0.239489118173E+06   0.239998225735E+06
 MD| Kinetic energy [hartree]            0.331987635823E+04   0.987998851037E+03
 MD| Temperature [K]                           56880.322731         16927.646527
 MD| ***************************************************************************
 MD| Estimated peak process memory after this step [MiB]                     310

 ENERGY| Total FORCE_EVAL ( NNP ) energy [hartree]        239464.851190160814440

 MD| ***************************************************************************
 MD| Step number                                                              57
 MD| Time [fs]                                                         28.500000
 MD| Conserved quantity [hartree]                             0.244048556867E+06
 MD| ---------------------------------------------------------------------------
 MD|                                          Instantaneous             Averages
 MD| CPU time per MD step [s]                      0.269839             0.278109
 MD| Energy drift per atom [K]           0.100650614582E+06   0.286388177294E+05
 MD| Potential energy [hartree]          0.239464851190E+06   0.239988868287E+06
 MD| Kinetic energy [hartree]            0.364865378121E+04   0.103467700771E+04
 MD| Temperature [K]                           62513.353576         17727.395773
 MD| ***************************************************************************
 MD| Estimated peak process memory after this step [MiB]                     310

 ENERGY| Total FORCE_EVAL ( NNP ) energy [hartree]        239382.663740149844671

 MD| ***************************************************************************
 MD| Step number                                                              58
 MD| Time [fs]                                                         29.000000
 MD| Conserved quantity [hartree]                             0.244411400652E+06
 MD| ---------------------------------------------------------------------------
 MD|                                          Instantaneous             Averages
 MD| CPU time per MD step [s]                      0.270736             0.277982
 MD| Energy drift per atom [K]           0.109974903995E+06   0.300411640443E+05
 MD| Potential energy [hartree]          0.239382663740E+06   0.239978416484E+06
 MD| Kinetic energy [hartree]            0.403003127764E+04   0.108632104684E+04
 MD| Temperature [K]                           69047.595439         18612.226802
 MD| ***************************************************************************
 MD| Estimated peak process memory after this step [MiB]                     310

 ENERGY| Total FORCE_EVAL ( NNP ) energy [hartree]        239231.923702117899666

 MD| ***************************************************************************
 MD| Step number                                                              59
 MD| Time [fs]                                                         29.500000
 MD| Conserved quantity [hartree]                             0.244577601858E+06
 MD| ---------------------------------------------------------------------------
 MD|                                          Instantaneous             Averages
 MD| CPU time per MD step [s]                      0.271021             0.277864
 MD| Energy drift per atom [K]           0.114245910449E+06   0.314683631359E+05
 MD| Potential energy [hartree]          0.239231923702E+06   0.239965764064E+06
 MD| Kinetic energy [hartree]            0.427784370044E+04   0.114041465114E+04
[...]
 MD| Conserved quantity [hartree]                             0.275182155208E+06
 MD| ---------------------------------------------------------------------------
 MD|                                          Instantaneous             Averages
 MD| CPU time per MD step [s]                      0.293105             0.281726
 MD| Energy drift per atom [K]           0.900715804523E+06   0.156368572625E+06
 MD| Potential energy [hartree]          0.232414859826E+06   0.238947472059E+06
 MD| Kinetic energy [hartree]            0.343075733608E+05   0.584651038968E+04
 MD| Temperature [K]                          587800.759524        100169.814154
 MD| ***************************************************************************
 MD| Estimated peak process memory after this step [MiB]                     310

 ENERGY| Total FORCE_EVAL ( NNP ) energy [hartree]        232007.491659552324563

 MD| ***************************************************************************
 MD| Step number                                                              91
 MD| Time [fs]                                                         45.500000
 MD| Conserved quantity [hartree]                             0.277535634453E+06
 MD| ---------------------------------------------------------------------------
 MD|                                          Instantaneous             Averages
 MD| CPU time per MD step [s]                      0.403418             0.283064
 MD| Energy drift per atom [K]           0.961195059071E+06   0.165212819729E+06
 MD| Potential energy [hartree]          0.232007491660E+06   0.238871208538E+06
 MD| Kinetic energy [hartree]            0.364771566628E+05   0.618311089817E+04
 MD| Temperature [K]                          624972.806038        105936.879999
 MD| ***************************************************************************
 MD| Estimated peak process memory after this step [MiB]                     310

 ENERGY| Total FORCE_EVAL ( NNP ) energy [hartree]        231505.972747902123956

 MD| ***************************************************************************
 MD| Step number                                                              92
 MD| Time [fs]                                                         46.000000
 MD| Conserved quantity [hartree]                             0.280014905362E+06
 MD| ---------------------------------------------------------------------------
 MD|                                          Instantaneous             Averages
 MD| CPU time per MD step [s]                      0.564355             0.286121
 MD| Energy drift per atom [K]           0.102490688348E+07   0.174557320422E+06
 MD| Potential energy [hartree]          0.231505972748E+06   0.238791151627E+06
 MD| Kinetic energy [hartree]            0.388293344423E+05   0.653796115409E+04
 MD| Temperature [K]                          665273.292196        112016.623610
 MD| ***************************************************************************
 MD| Estimated peak process memory after this step [MiB]                     310

 ENERGY| Total FORCE_EVAL ( NNP ) energy [hartree]        230837.941234367928701

 MD| ***************************************************************************
 MD| Step number                                                              93
 MD| Time [fs]                                                         46.500000
 MD| Conserved quantity [hartree]                             0.282247300452E+06
 MD| ---------------------------------------------------------------------------
 MD|                                          Instantaneous             Averages
 MD| CPU time per MD step [s]                      0.590532             0.289394
 MD| Energy drift per atom [K]           0.108227454083E+07   0.184317720641E+06
 MD| Potential energy [hartree]          0.230837941234E+06   0.238705633236E+06
 MD| Kinetic energy [hartree]            0.410628948981E+05   0.690919700080E+04
 MD| Temperature [K]                          703541.476266        118377.105896
 MD| ***************************************************************************
 MD| Estimated peak process memory after this step [MiB]                     310

 ENERGY| Total FORCE_EVAL ( NNP ) energy [hartree]        230269.686147151893238

 MD| ***************************************************************************
 MD| Step number                                                              94
 MD| Time [fs]                                                         47.000000
 MD| Conserved quantity [hartree]                             0.284359010677E+06
 MD| ---------------------------------------------------------------------------
 MD|                                          Instantaneous             Averages
 MD| CPU time per MD step [s]                      0.461461             0.291225
 MD| Energy drift per atom [K]           0.113654086185E+07   0.194447754058E+06
 MD| Potential energy [hartree]          0.230269686147E+06   0.238615889118E+06
 MD| Kinetic energy [hartree]            0.430429224298E+05   0.729359833515E+04
 MD| Temperature [K]                          737465.813460        124963.155977
 MD| ***************************************************************************
 MD| Estimated peak process memory after this step [MiB]                     310

 ENERGY| Total FORCE_EVAL ( NNP ) energy [hartree]        229467.387623029382667

 MD| ***************************************************************************
 MD| Step number                                                              95
 MD| Time [fs]                                                         47.500000
 MD| Conserved quantity [hartree]                             0.286491331462E+06
 MD| ---------------------------------------------------------------------------
 MD|                                          Instantaneous             Averages
 MD| CPU time per MD step [s]                      0.482319             0.293236
 MD| Energy drift per atom [K]           0.119133682908E+07   0.204941323269E+06
 MD| Potential energy [hartree]          0.229467387623E+06   0.238519589102E+06
 MD| Kinetic energy [hartree]            0.452428176958E+05   0.769306380210E+04
 MD| Temperature [K]                          775157.202900        131807.303839
 MD| ***************************************************************************
 MD| Estimated peak process memory after this step [MiB]                     310

 ENERGY| Total FORCE_EVAL ( NNP ) energy [hartree]        228746.213108985510189

 MD| ***************************************************************************
 MD| Step number                                                              96
 MD| Time [fs]                                                         48.000000
 MD| Conserved quantity [hartree]                             0.288928379168E+06
 MD| ---------------------------------------------------------------------------
 MD|                                          Instantaneous             Averages
 MD| CPU time per MD step [s]                      0.542851             0.295837
 MD| Energy drift per atom [K]           0.125396360977E+07   0.215868638753E+06
 MD| Potential energy [hartree]          0.228746213109E+06   0.238417783102E+06
 MD| Kinetic energy [hartree]            0.476278973589E+05   0.810905165165E+04
 MD| Temperature [K]                          816021.405760        138934.534067
 MD| ***************************************************************************
 MD| Estimated peak process memory after this step [MiB]                     310

 ENERGY| Total FORCE_EVAL ( NNP ) energy [hartree]        228624.144948707486037

 MD| ***************************************************************************
 MD| Step number                                                              97
 MD| Time [fs]                                                         48.500000
 MD| Conserved quantity [hartree]                             0.291427252253E+06
 MD| ---------------------------------------------------------------------------
 MD|                                          Instantaneous             Averages
 MD| CPU time per MD step [s]                      0.303951             0.295920
 MD| Energy drift per atom [K]           0.131817916712E+07   0.227232664819E+06
 MD| Potential energy [hartree]          0.228624144949E+06   0.238316817760E+06
 MD| Kinetic energy [hartree]            0.494397743789E+05   0.853514157667E+04
 MD| Temperature [K]                          847064.775610        146234.845836
 MD| ***************************************************************************
 MD| Estimated peak process memory after this step [MiB]                     310

 ENERGY| Total FORCE_EVAL ( NNP ) energy [hartree]        227787.859214903495740

 MD| ***************************************************************************
 MD| Step number                                                              98
 MD| Time [fs]                                                         49.000000
 MD| Conserved quantity [hartree]                             0.293891654889E+06
 MD| ---------------------------------------------------------------------------
 MD|                                          Instantaneous             Averages
 MD| CPU time per MD step [s]                      0.349630             0.296468
 MD| Energy drift per atom [K]           0.138150890952E+07   0.239010993846E+06
 MD| Potential energy [hartree]          0.227787859215E+06   0.238209379408E+06
 MD| Kinetic energy [hartree]            0.518965424793E+05   0.897760485119E+04
 MD| Temperature [K]                          889157.235494        153815.686547
 MD| ***************************************************************************
 MD| Estimated peak process memory after this step [MiB]                     310

 ENERGY| Total FORCE_EVAL ( NNP ) energy [hartree]        226821.132124239346012

 MD| ***************************************************************************
 MD| Step number                                                              99
 MD| Time [fs]                                                         49.500000
 MD| Conserved quantity [hartree]                             0.296624128805E+06
 MD| ---------------------------------------------------------------------------
 MD|                                          Instantaneous             Averages
 MD| CPU time per MD step [s]                      0.343206             0.296940
 MD| Energy drift per atom [K]           0.145172749585E+07   0.251260655483E+06
 MD| Potential energy [hartree]          0.226821132124E+06   0.238094346607E+06
 MD| Kinetic energy [hartree]            0.547088434313E+05   0.943953655402E+04
 MD| Temperature [K]                          937341.134081        161730.085007
 MD| ***************************************************************************
 MD| Estimated peak process memory after this step [MiB]                     310

 ENERGY| Total FORCE_EVAL ( NNP ) energy [hartree]        225759.023361264175037

 MD| ***************************************************************************
 MD| Step number                                                             100
 MD| Time [fs]                                                         50.000000
 MD| Conserved quantity [hartree]                             0.299551866445E+06
 MD| ---------------------------------------------------------------------------
 MD|                                          Instantaneous             Averages
 MD| CPU time per MD step [s]                      0.318125             0.297152
 MD| Energy drift per atom [K]           0.152696393158E+07   0.264017688244E+06
 MD| Potential energy [hartree]          0.225759023361E+06   0.237970993374E+06
 MD| Kinetic energy [hartree]            0.577597717513E+05   0.992273890599E+04
 MD| Temperature [K]                          989613.498697        170008.919143
 MD| ***************************************************************************
 MD| Estimated peak process memory after this step [MiB]                     310

 -------------------------------------------------------------------------------
 -                                                                             -
 -                                DBCSR STATISTICS                             -
 -                                                                             -
 -------------------------------------------------------------------------------
 COUNTER                                    TOTAL       BLAS       SMM       ACC
 flops inhomo. stacks                           0       0.0%      0.0%      0.0%
 flops total                         0.000000E+00       0.0%      0.0%      0.0%
 flops max/rank                      0.000000E+00       0.0%      0.0%      0.0%
 matmuls inhomo. stacks                         0       0.0%      0.0%      0.0%
 matmuls total                                  0       0.0%      0.0%      0.0%
 number of processed stacks                     0       0.0%      0.0%      0.0%
 average stack size                                     0.0       0.0       0.0
 marketing flops                     0.000000E+00
 -------------------------------------------------------------------------------
 -                                                                             -
 -                      DBCSR MESSAGE PASSING PERFORMANCE                      -
 -                                                                             -
 -------------------------------------------------------------------------------
 ROUTINE             CALLS      AVE VOLUME [Bytes]
 MP_Bcast                1                     12.
 MP_Allreduce           19                     21.
 -------------------------------------------------------------------------------

 MEMORY| Estimated peak process memory [MiB]                                 310

 -------------------------------------------------------------------------------
 -                                                                             -
 -                         MESSAGE PASSING PERFORMANCE                         -
 -                                                                             -
 -------------------------------------------------------------------------------

 ROUTINE             CALLS      AVE VOLUME [Bytes]
 MP_Bcast              282                 181918.
 MP_Allreduce         1444                  68569.
 -------------------------------------------------------------------------------


 -------------------------------------------------------------------------------
 -                                                                             -
 -                           R E F E R E N C E S                               -
 -                                                                             -
 -------------------------------------------------------------------------------
 
 CP2K version 2026.1 (Development Version), the CP2K developers group (2026).
 CP2K is freely available from https://www.cp2k.org/ .
 
 C. Schran, J. Behler, D. Marx.
 J. Chem. Theory Comput. 16, 88-99 (2020).
 Automated Fitting of Neural Network Potentials at Coupled Cluster Accuracy: 
 Protonated Water Clusters as Testing Ground.
 https://doi.org/10.1021/acs.jctc.9b00805

 C. Schran, K. Brezina, O. Marsalek.
 J. Chem. Phys. 153, 104105 (2020).
 Committee neural network potentials control generalization errors and enable 
 active learning.
 https://doi.org/10.1063/5.0016004

 O. Schuett, P. Messmer, J. Hutter, J. VandeVondele.
 Electronic Structure Calculations on Graphics Processing Units, 173-190 (2016).
 GPU-Accelerated Sparse Matrix-Matrix Multiplication for Linear Scaling Density 
 Functional Theory.
 https://doi.org/10.1002/9781118670712.ch8

 A. Heinecke, G. Henry, M. Hutchinson, H. Pabst.
 Proceedings of Intl. Supercomputing Conference, 981-991 (2016).
 LIBXSMM: Accelerating Small Matrix Multiplications by Runtime Code Generation.
 https://doi.org/10.1109/SC.2016.83

 J. Hutter, M. Iannuzzi, F. Schiffmann, J. VandeVondele.
 WIREs Comput Mol Sci. 4, 15-25 (2014).
 CP2K: atomistic simulations of condensed matter systems.
 https://doi.org/10.1002/wcms.1159

 U. Borstnik, J. VandeVondele, V. Weber, J. Hutter.
 Parallel Comput. 40, 47-58 (2014).
 Sparse matrix multiplication: The distributed block-compressed sparse row 
 library.
 https://doi.org/10.1016/j.parco.2014.03.012

 J. Behler.
 J. Chem. Phys. 134, 074106 (2011).
 Atom-centered symmetry functions for constructing high-dimensional neural 
 network potentials.
 https://doi.org/10.1063/1.3553717

 G. Bussi, D. Donadio, M. Parrinello.
 J. Chem. Phys. 126, 014101 (2007).
 Canonical sampling through velocity rescaling.
 https://doi.org/10.1063/1.2408420

 J. Behler, M. Parrinello.
 Phys. Rev. Lett. 98, 146401 (2007).
 Generalized neural-network representation of high-dimensional potential-energy 
 surfaces.
 https://doi.org/10.1103/PhysRevLett.98.146401

 M. Frigo, S. G. Johnson.
 Proc. IEEE 93, 216-231 (2005).
 The design and implementation of FFTW3.
 https://doi.org/10.1109/JPROC.2004.840301


 -------------------------------------------------------------------------------
 -                                                                             -
 -                                T I M I N G                                  -
 -                                                                             -
 -------------------------------------------------------------------------------
 SUBROUTINE                       CALLS  ASD         SELF TIME        TOTAL TIME
                                MAXIMUM       AVERAGE  MAXIMUM  AVERAGE  MAXIMUM
 CP2K                                 1  1.0    0.024    0.026   30.207   30.475
 qs_mol_dyn_low                       1  2.0    0.008    0.012   29.821   30.084
 velocity_verlet                    100  3.0    0.024    0.029   28.849   29.254
 nnp_calc_energy_force              101  4.0    0.909    2.049   23.510   23.717
 nnp_calc_acsf                    38784  5.0    0.919    1.072   15.797   20.865
 nnp_acsf_angular                 38784  6.0   14.262   19.189   14.262   19.189
 mp_sum_dm                          301  5.0    5.622    9.223    5.622    9.223
 csvr_particles                     200  4.0    0.605    0.658    5.166    5.356
 md_output                          100  3.0    0.000    0.000    0.533    5.085
 mp_sum_dv                          609  4.4    4.730    4.915    4.730    4.915
 md_write_output                    101  4.0    0.036    0.963    0.154    4.466
 write_trajectory                   404  5.0    0.057    1.696    0.113    3.498
 write_particle_coordinates         101  6.0    0.056    1.803    0.056    1.803
 mp_sum_b                           101  5.0    1.061    1.102    1.061    1.102
 nnp_acsf_radial                  38784  6.0    0.615    0.741    0.615    0.741
 write_restart                      100  4.0    0.016    0.451    0.381    0.660
 -------------------------------------------------------------------------------

 The number of warnings for this run is : 0
 
 -------------------------------------------------------------------------------
  **** **** ******  **  PROGRAM ENDED AT                 2026-04-30 04:04:11.578
 ***** ** ***  *** **   PROGRAM RAN ON                             phy-cerberus4
 **    ****   ******    PROGRAM RAN BY                                     crm98
 ***** **    ** ** **   PROGRAM PROCESS ID                                870981
  **** **  *******  **  PROGRAM STOPPED IN /lsc/zeushome/crm98/cp2k_benchmarks/c
                                           p2k_optimized/NNP/NNP_size_scaling_fe
                                           ature-nnp-verlet-cells_30-04_04-02/N_
                                           4096
