 DBCSR| CPU Multiplication driver                                           XSMM (U)
 DBCSR| Multrec recursion limit                                              512 (U)
 DBCSR| Multiplication stack size                                           1000 (D)
 DBCSR| Maximum elements for images                                    UNLIMITED (U)
 DBCSR| Multiplicative factor virtual images                                   1 (U)
 DBCSR| Use multiplication densification                                       T (D)
 DBCSR| Multiplication size stacks                                             3 (U)
 DBCSR| Use memory pool for CPU allocation                                     F (U)
 DBCSR| Number of 3D layers                                               SINGLE (U)
 DBCSR| Use MPI memory allocation                                              F (U)
 DBCSR| Use RMA algorithm                                                      F (U)
 DBCSR| Use Communication thread                                               T (U)
 DBCSR| Communication thread load                                             87 (D)
 DBCSR| MPI: My process id                                                     0
 DBCSR| MPI: Number of processes                                              36
 DBCSR| OMP: Current number of threads                                         1
 DBCSR| OMP: Max number of threads                                             1
 DBCSR| Split modifier for TAS multiplication algorithm                  1.0E+00 (U)


  **** **** ******  **  PROGRAM STARTED AT               2026-05-02 15:46:07.267
 ***** ** ***  *** **   PROGRAM STARTED ON                         phy-cerberus4
 **    ****   ******    PROGRAM STARTED BY                                 crm98
 ***** **    ** ** **   PROGRAM PROCESS ID                               1225661
  **** **  *******  **  PROGRAM STARTED IN /lsc/zeushome/crm98/cp2k-benchmarks/r
                                           esults/cp2k_optimized/NNP/NNP_size_sc
                                           aling_feature-nnp-verlet-cells_02-05_
                                           15-45/N_1024

 CP2K| version string:                 CP2K version 2026.1 (Development Version)
 CP2K| source code revision number:                                   151b7d1223
 CP2K| cp2kflags: omp libint fftw3 libxc parallel scalapack mpi_f08 cosma ace de
 CP2K|            epmd xsmm plumed2 spglib libdftd4 dftd4_v3 mctc-lib tblite lib
 CP2K|            bvori libbqb libtorch mimic hdf5 trexio libsmeagol greenx
 CP2K| is freely available from                            https://www.cp2k.org/
 CP2K| Program compiled at                                   2026-05-02 15:35:30
 CP2K| Program compiled on                                         phy-cerberus4
 CP2K| Program compiled for                                               x86_64
 CP2K| Data directory path           /local/data/public/crm98/original_cp2k/data
 CP2K| Input file name                                                   run.inp

 GLOBAL| Force Environment number                                              1
 GLOBAL| Basis set file name                                           BASIS_SET
 GLOBAL| Potential file name                                           POTENTIAL
 GLOBAL| MM Potential file name                                     MM_POTENTIAL
 GLOBAL| Coordinate file name                                      __STD_INPUT__
 GLOBAL| Method name                                                        CP2K
 GLOBAL| Project name                                              H2O-64_NNP_MD
 GLOBAL| Run type                                                             MD
 GLOBAL| FFT library                                                       FFTW3
 GLOBAL| Diagonalization library                                       ScaLAPACK
 GLOBAL| Cholesky decomposition library                                ScaLAPACK
 GLOBAL| DGEMM library                                                      BLAS
 GLOBAL| Orthonormality check for eigenvectors                          DISABLED
 GLOBAL| Matrix multiplication library                                     COSMA
 GLOBAL| All-to-all communication in single precision                          F
 GLOBAL| FFTs using library dependent lengths                                  F
 GLOBAL| Grid backend                                                       AUTO
 GLOBAL| Global print level                                                  LOW
 GLOBAL| MPI I/O enabled                                                       T
 GLOBAL| Total number of message passing processes                            36
 GLOBAL| Number of distributed systems (nodes)                                 1
 GLOBAL| Number of threads for this process                                    1
 GLOBAL| This output is from process                                           0
 GLOBAL| OpenMP stack size per thread (OMP_STACKSIZE)                    default
 GLOBAL| CPU model name                              Intel(R) Xeon(R) Gold 5418Y
 GLOBAL| CPUID                                                              1003

 MEMORY| system memory details [Kb]
 MEMORY|                        rank 0           min           max       average
 MEMORY| MemTotal            263594404     263594404     263594404     263594404
 MEMORY| MemFree              46990360      46990360      46990360      46990360
 MEMORY| Buffers               2797540       2797540       2797540       2797540
 MEMORY| Cached              196220416     196220412     196220416     196220412
 MEMORY| Slab                  9215640       9215640       9215640       9215640
 MEMORY| SReclaimable          7586396       7586396       7586396       7586396
 MEMORY| MemLikelyFree       253594712     253594708     253594712     253594708


 GENERATE|  Preliminary Number of Bonds generated:                             0
 GENERATE|  Achieved consistency in connectivity generation.
 
 NNP| Neural Network Potential Force Environment
 NNP| Reading NNP input from file: NNP/bulkH2O-jcp2020-cnnp/nnp-1/input.nn
 NNP| Activation functions:  1  1  3
 NNP| short range atomic symmetry functions element H :
 NNP|   1 H   2 H             0.001  0.000 12.000
 NNP|   2 H   2 O             0.001  0.000 12.000
 NNP|   3 H   2 H             0.010  0.000 12.000
 NNP|   4 H   2 O             0.010  0.000 12.000
 NNP|   5 H   2 H             0.030  0.000 12.000
 NNP|   6 H   2 O             0.030  0.000 12.000
 NNP|   7 H   2 H             0.060  0.000 12.000
 NNP|   8 H   2 O             0.060  0.000 12.000
 NNP|   9 H   2 O             0.150  0.900 12.000
 NNP|  10 H   2 H             0.150  1.900 12.000
 NNP|  11 H   2 O             0.300  0.900 12.000
 NNP|  12 H   2 H             0.300  1.900 12.000
 NNP|  13 H   2 O             0.600  0.900 12.000
 NNP|  14 H   2 H             0.600  1.900 12.000
 NNP|  15 H   2 O             1.500  0.900 12.000
 NNP|  16 H   2 H             1.500  1.900 12.000
 NNP|   1 H   3 O  O   0.001 -1.000  4.000 12.000
 NNP|   2 H   3 O  O   0.001  1.000  4.000 12.000
 NNP|   3 H   3 H  O   0.010 -1.000  4.000 12.000
 NNP|   4 H   3 H  O   0.010  1.000  4.000 12.000
 NNP|   5 H   3 H  O   0.030 -1.000  1.000 12.000
 NNP|   6 H   3 O  O   0.030 -1.000  1.000 12.000
 NNP|   7 H   3 H  O   0.030  1.000  1.000 12.000
 NNP|   8 H   3 O  O   0.030  1.000  1.000 12.000
 NNP|   9 H   3 H  O   0.070 -1.000  1.000 12.000
 NNP|  10 H   3 H  O   0.070  1.000  1.000 12.000
 NNP|  11 H   3 H  O   0.200  1.000  1.000 12.000
 NNP| short range atomic symmetry functions element O :
 NNP|   1 O   2 H             0.001  0.000 12.000
 NNP|   2 O   2 O             0.001  0.000 12.000
 NNP|   3 O   2 H             0.010  0.000 12.000
 NNP|   4 O   2 O             0.010  0.000 12.000
 NNP|   5 O   2 H             0.030  0.000 12.000
 NNP|   6 O   2 O             0.030  0.000 12.000
 NNP|   7 O   2 H             0.060  0.000 12.000
 NNP|   8 O   2 O             0.060  0.000 12.000
 NNP|   9 O   2 H             0.150  0.900 12.000
 NNP|  10 O   2 O             0.150  4.000 12.000
 NNP|  11 O   2 H             0.300  0.900 12.000
 NNP|  12 O   2 O             0.300  4.000 12.000
 NNP|  13 O   2 H             0.600  0.900 12.000
 NNP|  14 O   2 O             0.600  4.000 12.000
 NNP|  15 O   2 H             1.500  0.900 12.000
 NNP|  16 O   2 O             1.500  4.000 12.000
 NNP|   1 O   3 H  O   0.001 -1.000  4.000 12.000
 NNP|   2 O   3 O  O   0.001 -1.000  4.000 12.000
 NNP|   3 O   3 H  O   0.001  1.000  4.000 12.000
 NNP|   4 O   3 O  O   0.001  1.000  4.000 12.000
 NNP|   5 O   3 H  H   0.010 -1.000  4.000 12.000
 NNP|   6 O   3 H  H   0.010  1.000  4.000 12.000
 NNP|   7 O   3 H  H   0.030 -1.000  1.000 12.000
 NNP|   8 O   3 H  O   0.030 -1.000  1.000 12.000
 NNP|   9 O   3 O  O   0.030 -1.000  1.000 12.000
 NNP|  10 O   3 H  H   0.030  1.000  1.000 12.000
 NNP|  11 O   3 H  O   0.030  1.000  1.000 12.000
 NNP|  12 O   3 O  O   0.030  1.000  1.000 12.000
 NNP|  13 O   3 H  H   0.070 -1.000  1.000 12.000
 NNP|  14 O   3 H  H   0.070  1.000  1.000 12.000
 NNP| Neural network specification for element H :
 NNP|  27 nodes in layer  1
 NNP|  20 nodes in layer  2
 NNP|  20 nodes in layer  3
 NNP|   1 nodes in layer  4
 NNP| Neural network specification for element O :
 NNP|  30 nodes in layer  1
 NNP|  20 nodes in layer  2
 NNP|  20 nodes in layer  3
 NNP|   1 nodes in layer  4
 NNP| Reading scaling information from file: NNP/bulkH2O-jcp2020-cnnp/nnp-1/input.nn
 NNP| Initializing weights for model:            1
 NNP| Reading weights from file: NNP/bulkH2O-jcp2020-cnnp/nnp-1/weights.001.data
 NNP| Reading weights from file: NNP/bulkH2O-jcp2020-cnnp/nnp-1/weights.008.data
 NNP| NNP force environment initialized

 MD_PAR| Molecular dynamics protocol (MD input parameters)
 MD_PAR| Ensemble type                                                       NVT
 MD_PAR| Number of time steps                                                100
 MD_PAR| Time step [fs]                                                 0.500000
 MD_PAR| Temperature [K]                                              300.000000
 MD_PAR| Temperature tolerance [K]                                      0.000000
 MD_PAR| Print MD information every                                    1 step(s)
 MD_PAR| File type   Print frequency [steps]                          File names
 MD_PAR| Coordinates          1                          H2O-64_NNP_MD-pos-1.xyz
 MD_PAR| Velocities           1                          H2O-64_NNP_MD-vel-1.xyz
 MD_PAR| Energies             1                             H2O-64_NNP_MD-1.ener
 MD_PAR| Dump                20                          H2O-64_NNP_MD-1.restart

 ROT| Rotational analysis information
 ROT| Principal axes and moments of inertia [a.u.]
 ROT|                           1                   2                   3
 ROT| Eigenvalues      2.65129702357E+10   4.79228077286E+10   4.93676999485E+10
 ROT|      x             -0.996548577921     -0.019859296177     -0.080601117854
 ROT|      y              0.066986952827     -0.765844261888     -0.639527415116
 ROT|      z              0.049027339261      0.642719359355     -0.764531323829
 ROT| Number of rotovibrational vectors                                        6

 DOF| Calculation of degrees of freedom
 DOF| Number of atoms                                                       3072
 DOF| Number of intramolecular constraints                                     0
 DOF| Number of intermolecular constraints                                     0
 DOF| Invariants (translations + rotations)                                    3
 DOF| Degrees of freedom                                                    9213

 DOF| Restraints information
 DOF| Number of intramolecular restraints                                      0
 DOF| Number of intermolecular restraints                                      0

 THERMOSTAT| Thermostat information for PARTICLES
 THERMOSTAT| Type of thermostat            Canonical Sampling/Velocity Rescaling
 THERMOSTAT| CSVR time constant [fs]                                   30.000000
 THERMOSTAT| Initial kinetic energy                           0.000000000000E+00
 THERMOSTAT| End of thermostat information for PARTICLES

 MD_VEL| Velocities initialization
 MD_VEL| Initial temperature [K]                                      300.000000
 MD_VEL| COM velocity            -0.0000000000     0.0000000000     0.0000000000

 ENERGY| Total FORCE_EVAL ( NNP ) energy [hartree]         60033.189016333759355

 MD_INI| MD initialization
 MD_INI| Potential energy [hartree]                           0.600331890163E+05
 MD_INI| Kinetic energy [hartree]                             0.437638046366E+01
 MD_INI| Temperature [K]                                              300.000000
 MD_INI| Cell volume [bohr^3]                                 2.068623132942E+05
 MD_INI| Cell volume [ang^3]                                  3.065383180800E+04
 MD_INI| Cell lengths [bohr]      9.38815943E+01  4.69407971E+01  4.69407971E+01
 MD_INI| Cell lengths [ang]       4.96800000E+01  2.48400000E+01  2.48400000E+01
 MD_INI| Cell angles [deg]        9.00000000E+01  9.00000000E+01  9.00000000E+01

 ENERGY| Total FORCE_EVAL ( NNP ) energy [hartree]         60032.201216944653424

 MD| ***************************************************************************
 MD| Step number                                                               1
 MD| Time [fs]                                                          0.500000
 MD| Conserved quantity [hartree]                             0.600369608512E+05
 MD| ---------------------------------------------------------------------------
 MD|                                          Instantaneous             Averages
 MD| CPU time per MD step [s]                      0.232198             0.232198
 MD| Energy drift per atom [K]          -0.621419813125E+02   0.000000000000E+00
 MD| Potential energy [hartree]          0.600322012169E+05   0.600322012169E+05
 MD| Kinetic energy [hartree]            0.473939463494E+01   0.473939463494E+01
 MD| Temperature [K]                             324.884548           324.884548
 MD| ***************************************************************************
 MD| Estimated peak process memory after this step [MiB]                     274

 ENERGY| Total FORCE_EVAL ( NNP ) energy [hartree]         60031.253704547285452

 MD| ***************************************************************************
 MD| Step number                                                               2
 MD| Time [fs]                                                          1.000000
 MD| Conserved quantity [hartree]                             0.600369178791E+05
 MD| ---------------------------------------------------------------------------
 MD|                                          Instantaneous             Averages
 MD| CPU time per MD step [s]                      0.098770             0.165484
 MD| Energy drift per atom [K]          -0.665591356123E+02  -0.332795678062E+02
 MD| Potential energy [hartree]          0.600312537045E+05   0.600317274607E+05
 MD| Kinetic energy [hartree]            0.562689968420E+01   0.518314715957E+01
 MD| Temperature [K]                             385.722841           355.303695
 MD| ***************************************************************************
 MD| Estimated peak process memory after this step [MiB]                     274

 ENERGY| Total FORCE_EVAL ( NNP ) energy [hartree]         60030.570300015926477

 MD| ***************************************************************************
 MD| Step number                                                               3
 MD| Time [fs]                                                          1.500000
 MD| Conserved quantity [hartree]                             0.600369899039E+05
 MD| ---------------------------------------------------------------------------
 MD|                                          Instantaneous             Averages
 MD| CPU time per MD step [s]                      0.100855             0.143941
 MD| Energy drift per atom [K]          -0.591556246673E+02  -0.419049200932E+02
 MD| Potential energy [hartree]          0.600305703000E+05   0.600313417405E+05
 MD| Kinetic energy [hartree]            0.635326760353E+01   0.557318730756E+01
 MD| Temperature [K]                             435.515216           382.040868
 MD| ***************************************************************************
 MD| Estimated peak process memory after this step [MiB]                     274

 ENERGY| Total FORCE_EVAL ( NNP ) energy [hartree]         60030.800078447784472

 MD| ***************************************************************************
 MD| Step number                                                               4
 MD| Time [fs]                                                          2.000000
 MD| Conserved quantity [hartree]                             0.600372064041E+05
 MD| ---------------------------------------------------------------------------
 MD|                                          Instantaneous             Averages
 MD| CPU time per MD step [s]                      0.086051             0.129469
 MD| Energy drift per atom [K]          -0.369012985612E+02  -0.406540147102E+02
 MD| Potential energy [hartree]          0.600308000784E+05   0.600312063250E+05
 MD| Kinetic energy [hartree]            0.631012983681E+01   0.575742293987E+01
 MD| Temperature [K]                             432.558130           394.670184
 MD| ***************************************************************************
 MD| Estimated peak process memory after this step [MiB]                     274

 ENERGY| Total FORCE_EVAL ( NNP ) energy [hartree]         60031.294436978860176

 MD| ***************************************************************************
 MD| Step number                                                               5
 MD| Time [fs]                                                          2.500000
 MD| Conserved quantity [hartree]                             0.600378349118E+05
 MD| ---------------------------------------------------------------------------
 MD|                                          Instantaneous             Averages
 MD| CPU time per MD step [s]                      0.193013             0.142177
 MD| Energy drift per atom [K]           0.277037747492E+02  -0.269824568183E+02
 MD| Potential energy [hartree]          0.600312944370E+05   0.600312239474E+05
 MD| Kinetic energy [hartree]            0.641749066810E+01   0.588943648552E+01
 MD| Temperature [K]                             439.917694           403.719686
 MD| ***************************************************************************
 MD| Estimated peak process memory after this step [MiB]                     274

 ENERGY| Total FORCE_EVAL ( NNP ) energy [hartree]         60027.640293704855139

 MD| ***************************************************************************
 MD| Step number                                                               6
 MD| Time [fs]                                                          3.000000
 MD| Conserved quantity [hartree]                             0.600354837248E+05
 MD| ---------------------------------------------------------------------------
 MD|                                          Instantaneous             Averages
 MD| CPU time per MD step [s]                      0.096009             0.134483
 MD| Energy drift per atom [K]          -0.213977617047E+03  -0.581483168564E+02
 MD| Potential energy [hartree]          0.600276402937E+05   0.600306266718E+05
 MD| Kinetic energy [hartree]            0.766283587357E+01   0.618500305019E+01
 MD| Temperature [K]                             525.285857           423.980714
 MD| ***************************************************************************
 MD| Estimated peak process memory after this step [MiB]                     274

 ENERGY| Total FORCE_EVAL ( NNP ) energy [hartree]         60026.465590275627619

 MD| ***************************************************************************
 MD| Step number                                                               7
 MD| Time [fs]                                                          3.500000
 MD| Conserved quantity [hartree]                             0.600358152613E+05
 MD| ---------------------------------------------------------------------------
 MD|                                          Instantaneous             Averages
 MD| CPU time per MD step [s]                      0.109006             0.130843
 MD| Energy drift per atom [K]          -0.179898569864E+03  -0.755412101432E+02
 MD| Potential energy [hartree]          0.600264655903E+05   0.600300322316E+05
 MD| Kinetic energy [hartree]            0.910474070951E+01   0.660210843009E+01
 MD| Temperature [K]                             624.128143           452.573204
 MD| ***************************************************************************
 MD| Estimated peak process memory after this step [MiB]                     274

 ENERGY| Total FORCE_EVAL ( NNP ) energy [hartree]         60025.744241728069028

 MD| ***************************************************************************
 MD| Step number                                                               8
 MD| Time [fs]                                                          4.000000
 MD| Conserved quantity [hartree]                             0.600357965792E+05
 MD| ---------------------------------------------------------------------------
 MD|                                          Instantaneous             Averages
 MD| CPU time per MD step [s]                      0.168464             0.135546
 MD| Energy drift per atom [K]          -0.181818934532E+03  -0.888259256918E+02
 MD| Potential energy [hartree]          0.600257442417E+05   0.600294962328E+05
 MD| Kinetic energy [hartree]            0.973058772578E+01   0.699316834206E+01
 MD| Temperature [K]                             667.029830           479.380282
 MD| ***************************************************************************
 MD| Estimated peak process memory after this step [MiB]                     274

 ENERGY| Total FORCE_EVAL ( NNP ) energy [hartree]         60025.312578490535088

 MD| ***************************************************************************
 MD| Step number                                                               9
 MD| Time [fs]                                                          4.500000
 MD| Conserved quantity [hartree]                             0.600356400673E+05
 MD| ---------------------------------------------------------------------------
 MD|                                          Instantaneous             Averages
 MD| CPU time per MD step [s]                      0.099706             0.131563
 MD| Energy drift per atom [K]          -0.197906978158E+03  -0.100946042632E+03
 MD| Potential energy [hartree]          0.600253125785E+05   0.600290313823E+05
 MD| Kinetic energy [hartree]            0.989051152840E+01   0.731509536276E+01
 MD| Temperature [K]                             677.992575           501.448315
 MD| ***************************************************************************
 MD| Estimated peak process memory after this step [MiB]                     274

 ENERGY| Total FORCE_EVAL ( NNP ) energy [hartree]         60025.494543988083024

 MD| ***************************************************************************
 MD| Step number                                                              10
 MD| Time [fs]                                                          5.000000
 MD| Conserved quantity [hartree]                             0.600362018663E+05
 MD| ---------------------------------------------------------------------------
 MD|                                          Instantaneous             Averages
 MD| CPU time per MD step [s]                      0.089081             0.127315
 MD| Energy drift per atom [K]          -0.140158970468E+03  -0.104867335416E+03
 MD| Potential energy [hartree]          0.600254945440E+05   0.600286776985E+05
 MD| Kinetic energy [hartree]            0.101920692458E+02   0.760279275107E+01
 MD| Temperature [K]                             698.664296           521.169913
 MD| ***************************************************************************
 MD| Estimated peak process memory after this step [MiB]                     274

 ENERGY| Total FORCE_EVAL ( NNP ) energy [hartree]         60027.561723231003270

 MD| ***************************************************************************
 MD| Step number                                                              11
 MD| Time [fs]                                                          5.500000
 MD| Conserved quantity [hartree]                             0.600388379751E+05
 MD| ---------------------------------------------------------------------------
 MD|                                          Instantaneous             Averages
 MD| CPU time per MD step [s]                      0.081042             0.123109
 MD| Energy drift per atom [K]           0.130809882008E+03  -0.834421338320E+02
 MD| Potential energy [hartree]          0.600275617232E+05   0.600285762462E+05
 MD| Kinetic energy [hartree]            0.106558086208E+02   0.788033964832E+01
 MD| Temperature [K]                             730.453536           540.195697
 MD| ***************************************************************************
 MD| Estimated peak process memory after this step [MiB]                     274

 ENERGY| Total FORCE_EVAL ( NNP ) energy [hartree]         60029.050343916169368

 MD| ***************************************************************************
 MD| Step number                                                              12
 MD| Time [fs]                                                          6.000000
 MD| Conserved quantity [hartree]                             0.600413671346E+05
 MD| ---------------------------------------------------------------------------
 MD|                                          Instantaneous             Averages
 MD| CPU time per MD step [s]                      0.090677             0.120406
 MD| Energy drift per atom [K]           0.390785294060E+03  -0.439231815077E+02
 MD| Potential energy [hartree]          0.600290503439E+05   0.600286157544E+05
 MD| Kinetic energy [hartree]            0.115689245986E+02   0.818772172751E+01
 MD| Temperature [K]                             793.047453           561.266677
 MD| ***************************************************************************
 MD| Estimated peak process memory after this step [MiB]                     274

 ENERGY| Total FORCE_EVAL ( NNP ) energy [hartree]         60022.715355896114488

 MD| ***************************************************************************
 MD| Step number                                                              13
 MD| Time [fs]                                                          6.500000
 MD| Conserved quantity [hartree]                             0.600401137570E+05
 MD| ---------------------------------------------------------------------------
 MD|                                          Instantaneous             Averages
 MD| CPU time per MD step [s]                      0.089284             0.118012
 MD| Energy drift per atom [K]           0.261949072218E+03  -0.203945466057E+02
 MD| Potential energy [hartree]          0.600227153559E+05   0.600281618776E+05
 MD| Kinetic energy [hartree]            0.164844385978E+02   0.882593071753E+01
 MD| Temperature [K]                            1130.004948           605.015774
 MD| ***************************************************************************
 MD| Estimated peak process memory after this step [MiB]                     274

 ENERGY| Total FORCE_EVAL ( NNP ) energy [hartree]         60018.515807270909136

 MD| ***************************************************************************
 MD| Step number                                                              14
 MD| Time [fs]                                                          7.000000
 MD| Conserved quantity [hartree]                             0.600385540566E+05
 MD| ---------------------------------------------------------------------------
 MD|                                          Instantaneous             Averages
 MD| CPU time per MD step [s]                      0.095565             0.116409
 MD| Energy drift per atom [K]           0.101625550926E+03  -0.116788253535E+02
 MD| Potential energy [hartree]          0.600185158073E+05   0.600274728725E+05
 MD| Kinetic energy [hartree]            0.188640494732E+02   0.954293920008E+01
 MD| Temperature [K]                            1293.126795           654.166562
 MD| ***************************************************************************
 MD| Estimated peak process memory after this step [MiB]                     274

 ENERGY| Total FORCE_EVAL ( NNP ) energy [hartree]         60020.669966898749408

 MD| ***************************************************************************
 MD| Step number                                                              15
 MD| Time [fs]                                                          7.500000
 MD| Conserved quantity [hartree]                             0.600484026341E+05
 MD| ---------------------------------------------------------------------------
 MD|                                          Instantaneous             Averages
 MD| CPU time per MD step [s]                      0.106875             0.115773
 MD| Energy drift per atom [K]           0.111397291038E+04   0.633646236956E+02
 MD| Potential energy [hartree]          0.600206699669E+05   0.600270193455E+05
 MD| Kinetic energy [hartree]            0.262609104503E+02   0.106574706168E+02
 MD| Temperature [K]                            1800.180126           730.567466
 MD| ***************************************************************************
 MD| Estimated peak process memory after this step [MiB]                     274

 ENERGY| Total FORCE_EVAL ( NNP ) energy [hartree]         60024.132625869766343

 MD| ***************************************************************************
 MD| Step number                                                              16
 MD| Time [fs]                                                          8.000000
 MD| Conserved quantity [hartree]                             0.600902533475E+05
 MD| ---------------------------------------------------------------------------
 MD|                                          Instantaneous             Averages
 MD| CPU time per MD step [s]                      0.106830             0.115214
 MD| Energy drift per atom [K]           0.541585908038E+04   0.397895527238E+03
 MD| Potential energy [hartree]          0.600241326259E+05   0.600268389255E+05
 MD| Kinetic energy [hartree]            0.640031610630E+02   0.139915762696E+02
 MD| Temperature [K]                            4387.403810           959.119737
 MD| ***************************************************************************
 MD| Estimated peak process memory after this step [MiB]                     274

 ENERGY| Total FORCE_EVAL ( NNP ) energy [hartree]         60022.357076702122868

 MD| ***************************************************************************
 MD| Step number                                                              17
 MD| Time [fs]                                                          8.500000
 MD| Conserved quantity [hartree]                             0.600914381947E+05
 MD| ---------------------------------------------------------------------------
 MD|                                          Instantaneous             Averages
 MD| CPU time per MD step [s]                      0.095636             0.114062
 MD| Energy drift per atom [K]           0.553765097555E+04   0.700234083021E+03
 MD| Potential energy [hartree]          0.600223570767E+05   0.600265752873E+05
 MD| Kinetic energy [hartree]            0.659007921957E+02   0.170450595594E+02
 MD| Temperature [K]                            4517.486042          1168.435402
 MD| ***************************************************************************
 MD| Estimated peak process memory after this step [MiB]                     274

 ENERGY| Total FORCE_EVAL ( NNP ) energy [hartree]         60017.464611040624732

 MD| ***************************************************************************
 MD| Step number                                                              18
 MD| Time [fs]                                                          9.000000
 MD| Conserved quantity [hartree]                             0.600961921686E+05
 MD| ---------------------------------------------------------------------------
 MD|                                          Instantaneous             Averages
 MD| CPU time per MD step [s]                      0.100905             0.113331
 MD| Energy drift per atom [K]           0.602631778554E+04   0.996127622050E+03
 MD| Potential energy [hartree]          0.600174646110E+05   0.600260691387E+05
 MD| Kinetic energy [hartree]            0.745149156632E+02   0.202378293430E+02
 MD| Temperature [K]                            5107.982472          1387.299128
 MD| ***************************************************************************
 MD| Estimated peak process memory after this step [MiB]                     274

 ENERGY| Total FORCE_EVAL ( NNP ) energy [hartree]         60030.701409632703871

 MD| ***************************************************************************
 MD| Step number                                                              19
 MD| Time [fs]                                                          9.500000
 MD| Conserved quantity [hartree]                             0.601308996670E+05
 MD| ---------------------------------------------------------------------------
 MD|                                          Instantaneous             Averages
 MD| CPU time per MD step [s]                      0.095723             0.112405
 MD| Energy drift per atom [K]           0.959394411661E+04   0.144864427966E+04
 MD| Potential energy [hartree]          0.600307014096E+05   0.600263129424E+05
 MD| Kinetic energy [hartree]            0.946565104706E+02   0.241546020339E+02
 MD| Temperature [K]                            6488.684742          1655.793108
 MD| ***************************************************************************
 MD| Estimated peak process memory after this step [MiB]                     274

 ENERGY| Total FORCE_EVAL ( NNP ) energy [hartree]         60030.679447953247291

 MD| ***************************************************************************
 MD| Step number                                                              20
 MD| Time [fs]                                                         10.000000
 MD| Conserved quantity [hartree]                             0.601308988321E+05
 MD| ---------------------------------------------------------------------------
 MD|                                          Instantaneous             Averages
 MD| CPU time per MD step [s]                      0.091696             0.111369
 MD| Energy drift per atom [K]           0.959385828744E+04   0.185590498005E+04
 MD| Potential energy [hartree]          0.600306794480E+05   0.600265312677E+05
 MD| Kinetic energy [hartree]            0.931397879754E+02   0.276038613310E+02
 MD| Temperature [K]                            6384.713721          1892.239139
 MD| ***************************************************************************
 MD| Estimated peak process memory after this step [MiB]                     274

 ENERGY| Total FORCE_EVAL ( NNP ) energy [hartree]         60029.302850486361422

 MD| ***************************************************************************
 MD| Step number                                                              21
 MD| Time [fs]                                                         10.500000
 MD| Conserved quantity [hartree]                             0.601303378015E+05
 MD| ---------------------------------------------------------------------------
 MD|                                          Instantaneous             Averages
 MD| CPU time per MD step [s]                      0.159969             0.113683
 MD| Energy drift per atom [K]           0.953618926643E+04   0.222163280321E+04
 MD| Potential energy [hartree]          0.600293028505E+05   0.600266632478E+05
 MD| Kinetic energy [hartree]            0.925007297927E+02   0.306941884006E+02
 MD| Temperature [K]                            6340.906411          2104.080437
 MD| ***************************************************************************
 MD| Estimated peak process memory after this step [MiB]                     274

 ENERGY| Total FORCE_EVAL ( NNP ) energy [hartree]         60031.319667113501055

 MD| ***************************************************************************
 MD| Step number                                                              22
 MD| Time [fs]                                                         11.000000
 MD| Conserved quantity [hartree]                             0.601329988389E+05
 MD| ---------------------------------------------------------------------------
 MD|                                          Instantaneous             Averages
 MD| CPU time per MD step [s]                      0.107224             0.113390
 MD| Energy drift per atom [K]           0.980972056885E+04   0.256654588346E+04
 MD| Potential energy [hartree]          0.600313196671E+05   0.600268749032E+05
 MD| Kinetic energy [hartree]            0.916579905039E+02   0.334652703144E+02
 MD| Temperature [K]                            6283.136802          2294.037545
 MD| ***************************************************************************
 MD| Estimated peak process memory after this step [MiB]                     275

 ENERGY| Total FORCE_EVAL ( NNP ) energy [hartree]         60029.840369319812453

 MD| ***************************************************************************
 MD| Step number                                                              23
 MD| Time [fs]                                                         11.500000
 MD| Conserved quantity [hartree]                             0.601329742381E+05
 MD| ---------------------------------------------------------------------------
 MD|                                          Instantaneous             Averages
 MD| CPU time per MD step [s]                      0.103659             0.112967
 MD| Energy drift per atom [K]           0.980719182215E+04   0.288135657645E+04
 MD| Potential energy [hartree]          0.600298403693E+05   0.600270038365E+05
 MD| Kinetic energy [hartree]            0.916804465815E+02   0.359963649347E+02
 MD| Temperature [K]                            6284.676162          2467.543572
 MD| ***************************************************************************
 MD| Estimated peak process memory after this step [MiB]                     275

 ENERGY| Total FORCE_EVAL ( NNP ) energy [hartree]         60020.614425359904999

 MD| ***************************************************************************
 MD| Step number                                                              24
 MD| Time [fs]                                                         12.000000
 MD| Conserved quantity [hartree]                             0.601333477653E+05
 MD| ---------------------------------------------------------------------------
 MD|                                          Instantaneous             Averages
 MD| CPU time per MD step [s]                      0.100930             0.112465
 MD| Energy drift per atom [K]           0.984558713392E+04   0.317153284968E+04
 MD| Potential energy [hartree]          0.600206144254E+05   0.600267376111E+05
 MD| Kinetic energy [hartree]            0.997452385483E+02   0.386525680019E+02
 MD| Temperature [K]                            6837.516028          2649.625757
 MD| ***************************************************************************
 MD| Estimated peak process memory after this step [MiB]                     275

 ENERGY| Total FORCE_EVAL ( NNP ) energy [hartree]         60028.084289392267237

 MD| ***************************************************************************
 MD| Step number                                                              25
 MD| Time [fs]                                                         12.500000
 MD| Conserved quantity [hartree]                             0.601671431202E+05
 MD| ---------------------------------------------------------------------------
 MD|                                          Instantaneous             Averages
 MD| CPU time per MD step [s]                      0.093615             0.111711
 MD| Energy drift per atom [K]           0.133194531214E+05   0.357744966055E+04
 MD| Potential energy [hartree]          0.600280842894E+05   0.600267914782E+05
 MD| Kinetic energy [hartree]            0.124401173554E+03   0.420825122240E+02
 MD| Temperature [K]                            8527.675410          2884.747743
 MD| ***************************************************************************
 MD| Estimated peak process memory after this step [MiB]                     275

 ENERGY| Total FORCE_EVAL ( NNP ) energy [hartree]         60021.905532931494236

 MD| ***************************************************************************
 MD| Step number                                                              26
 MD| Time [fs]                                                         13.000000
 MD| Conserved quantity [hartree]                             0.601654143322E+05
 MD| ---------------------------------------------------------------------------
 MD|                                          Instantaneous             Averages
 MD| CPU time per MD step [s]                      0.100416             0.111277
 MD| Energy drift per atom [K]           0.131417488803E+05   0.394530732285E+04
 MD| Potential energy [hartree]          0.600219055329E+05   0.600266035572E+05
 MD| Kinetic energy [hartree]            0.126869324552E+03   0.453435434674E+02
 MD| Temperature [K]                            8696.866664          3108.290779
 MD| ***************************************************************************
 MD| Estimated peak process memory after this step [MiB]                     275

 ENERGY| Total FORCE_EVAL ( NNP ) energy [hartree]         60029.510420950442494

 MD| ***************************************************************************
 MD| Step number                                                              27
 MD| Time [fs]                                                         13.500000
 MD| Conserved quantity [hartree]                             0.601801198128E+05
 MD| ---------------------------------------------------------------------------
 MD|                                          Instantaneous             Averages
 MD| CPU time per MD step [s]                      0.110108             0.111234
 MD| Energy drift per atom [K]           0.146533432691E+05   0.434190124678E+04
 MD| Potential energy [hartree]          0.600295104210E+05   0.600267112189E+05
 MD| Kinetic energy [hartree]            0.131907781460E+03   0.485496263560E+02
 MD| Temperature [K]                            9042.251872          3328.067116
 MD| ***************************************************************************
 MD| Estimated peak process memory after this step [MiB]                     275

 ENERGY| Total FORCE_EVAL ( NNP ) energy [hartree]         60025.785461520135868

 MD| ***************************************************************************
 MD| Step number                                                              28
 MD| Time [fs]                                                         14.000000
 MD| Conserved quantity [hartree]                             0.601794582749E+05
 MD| ---------------------------------------------------------------------------
 MD|                                          Instantaneous             Averages
 MD| CPU time per MD step [s]                      0.092209             0.110554
 MD| Energy drift per atom [K]           0.145853429745E+05   0.470773845134E+04
 MD| Potential energy [hartree]          0.600257854615E+05   0.600266781561E+05
 MD| Kinetic energy [hartree]            0.132889072501E+03   0.515617494326E+02
 MD| Temperature [K]                            9109.519175          3534.547546
 MD| ***************************************************************************
 MD| Estimated peak process memory after this step [MiB]                     275

 ENERGY| Total FORCE_EVAL ( NNP ) energy [hartree]         60018.627315313045983

 MD| ***************************************************************************
 MD| Step number                                                              29
 MD| Time [fs]                                                         14.500000
 MD| Conserved quantity [hartree]                             0.601873659256E+05
 MD| ---------------------------------------------------------------------------
 MD|                                          Instantaneous             Averages
 MD| CPU time per MD step [s]                      0.089471             0.109827
 MD| Energy drift per atom [K]           0.153981800891E+05   0.507637436989E+04
 MD| Potential energy [hartree]          0.600186273153E+05   0.600264005409E+05
 MD| Kinetic energy [hartree]            0.145844494629E+03   0.548128785773E+02
 MD| Temperature [K]                            9997.610754          3757.411795
 MD| ***************************************************************************
 MD| Estimated peak process memory after this step [MiB]                     275

 ENERGY| Total FORCE_EVAL ( NNP ) energy [hartree]         60023.335228887619451

 MD| ***************************************************************************
 MD| Step number                                                              30
 MD| Time [fs]                                                         15.000000
 MD| Conserved quantity [hartree]                             0.602221671420E+05
 MD| ---------------------------------------------------------------------------
 MD|                                          Instantaneous             Averages
 MD| CPU time per MD step [s]                      0.092372             0.109245
 MD| Energy drift per atom [K]           0.189754398128E+05   0.553967655132E+04
 MD| Potential energy [hartree]          0.600233352289E+05   0.600262983638E+05
 MD| Kinetic energy [hartree]            0.173375051325E+03   0.587649510022E+02
 MD| Temperature [K]                           11884.824875          4028.325564
 MD| ***************************************************************************
 MD| Estimated peak process memory after this step [MiB]                     275

 ENERGY| Total FORCE_EVAL ( NNP ) energy [hartree]         60022.313554471897078

 MD| ***************************************************************************
 MD| Step number                                                              31
 MD| Time [fs]                                                         15.500000
 MD| Conserved quantity [hartree]                             0.602295566133E+05
 MD| ---------------------------------------------------------------------------
 MD|                                          Instantaneous             Averages
 MD| CPU time per MD step [s]                      0.098131             0.108887
 MD| Energy drift per atom [K]           0.197350126226E+05   0.599759061813E+04
 MD| Potential energy [hartree]          0.600223135545E+05   0.600261698216E+05
 MD| Kinetic energy [hartree]            0.178834437676E+03   0.626381602498E+02
 MD| Temperature [K]                           12259.064711          4293.833279
 MD| ***************************************************************************
 MD| Estimated peak process memory after this step [MiB]                     275

 ENERGY| Total FORCE_EVAL ( NNP ) energy [hartree]         60016.536999078212830

 MD| ***************************************************************************
 MD| Step number                                                              32
 MD| Time [fs]                                                         16.000000
 MD| Conserved quantity [hartree]                             0.602241634411E+05
 MD| ---------------------------------------------------------------------------
 MD|                                          Instantaneous             Averages
 MD| CPU time per MD step [s]                      0.102031             0.108672
 MD| Energy drift per atom [K]           0.191806418449E+05   0.640956096897E+04
 MD| Potential energy [hartree]          0.600165369991E+05   0.600258687959E+05
 MD| Kinetic energy [hartree]            0.176328310969E+03   0.661909774598E+02
 MD| Temperature [K]                           12087.270229          4537.378183
 MD| ***************************************************************************
 MD| Estimated peak process memory after this step [MiB]                     275

 ENERGY| Total FORCE_EVAL ( NNP ) energy [hartree]         60017.169118319201516

 MD| ***************************************************************************
 MD| Step number                                                              33
 MD| Time [fs]                                                         16.500000
 MD| Conserved quantity [hartree]                             0.602272852424E+05
 MD| ---------------------------------------------------------------------------
 MD|                                          Instantaneous             Averages
 MD| CPU time per MD step [s]                      0.102077             0.108473
 MD| Energy drift per atom [K]           0.195015356303E+05   0.680628747386E+04
 MD| Potential energy [hartree]          0.600171691183E+05   0.600256051693E+05
 MD| Kinetic energy [hartree]            0.175871428918E+03   0.695146275040E+02
 MD| Temperature [K]                           12055.951057          4765.213725
 MD| ***************************************************************************
 MD| Estimated peak process memory after this step [MiB]                     275

 ENERGY| Total FORCE_EVAL ( NNP ) energy [hartree]         60014.027941589854890

 MD| ***************************************************************************
 MD| Step number                                                              34
 MD| Time [fs]                                                         17.000000
 MD| Conserved quantity [hartree]                             0.602346220914E+05
 MD| ---------------------------------------------------------------------------
 MD|                                          Instantaneous             Averages
 MD| CPU time per MD step [s]                      0.107658             0.108449
 MD| Energy drift per atom [K]           0.202556993352E+05   0.720185841095E+04
 MD| Potential energy [hartree]          0.600140279416E+05   0.600252646626E+05
 MD| Kinetic energy [hartree]            0.183285101324E+03   0.728608179104E+02
 MD| Temperature [K]                           12564.156808          4994.594404
 MD| ***************************************************************************
 MD| Estimated peak process memory after this step [MiB]                     275

 ENERGY| Total FORCE_EVAL ( NNP ) energy [hartree]         60012.430947888387891

 MD| ***************************************************************************
 MD| Step number                                                              35
 MD| Time [fs]                                                         17.500000
 MD| Conserved quantity [hartree]                             0.602604966736E+05
 MD| ---------------------------------------------------------------------------
 MD|                                          Instantaneous             Averages
 MD| CPU time per MD step [s]                      0.106206             0.108385
 MD| Energy drift per atom [K]           0.229153793729E+05   0.765081615272E+04
 MD| Potential energy [hartree]          0.600124309479E+05   0.600248979850E+05
 MD| Kinetic energy [hartree]            0.207515422321E+03   0.767080923221E+02
 MD| Temperature [K]                           14225.140436          5258.324291
 MD| ***************************************************************************
 MD| Estimated peak process memory after this step [MiB]                     275

 ENERGY| Total FORCE_EVAL ( NNP ) energy [hartree]         60010.611130891382345

 MD| ***************************************************************************
 MD| Step number                                                              36
 MD| Time [fs]                                                         18.000000
 MD| Conserved quantity [hartree]                             0.602621786611E+05
 MD| ---------------------------------------------------------------------------
 MD|                                          Instantaneous             Averages
 MD| CPU time per MD step [s]                      0.093420             0.107969
 MD| Energy drift per atom [K]           0.230882729280E+05   0.807963439648E+04
 MD| Potential energy [hartree]          0.600106111309E+05   0.600245011280E+05
 MD| Kinetic energy [hartree]            0.207563271699E+03   0.803429584159E+02
 MD| Temperature [K]                           14228.420501          5507.493630
 MD| ***************************************************************************
 MD| Estimated peak process memory after this step [MiB]                     275

 ENERGY| Total FORCE_EVAL ( NNP ) energy [hartree]         60010.564774438571476

 MD| ***************************************************************************
 MD| Step number                                                              37
 MD| Time [fs]                                                         18.500000
 MD| Conserved quantity [hartree]                             0.602640256734E+05
 MD| ---------------------------------------------------------------------------
 MD|                                          Instantaneous             Averages
 MD| CPU time per MD step [s]                      0.092507             0.107551
 MD| Energy drift per atom [K]           0.232781295901E+05   0.849040453685E+04
 MD| Potential energy [hartree]          0.600105647744E+05   0.600241244698E+05
 MD| Kinetic energy [hartree]            0.206104539670E+03   0.837419200715E+02
 MD| Temperature [K]                           14128.424714          5740.491767
 MD| ***************************************************************************
 MD| Estimated peak process memory after this step [MiB]                     275

 ENERGY| Total FORCE_EVAL ( NNP ) energy [hartree]         60008.952367018318910

 MD| ***************************************************************************
 MD| Step number                                                              38
 MD| Time [fs]                                                         19.000000
 MD| Conserved quantity [hartree]                             0.602631261874E+05
 MD| ---------------------------------------------------------------------------
 MD|                                          Instantaneous             Averages
 MD| CPU time per MD step [s]                      0.092188             0.107147
 MD| Energy drift per atom [K]           0.231856703239E+05   0.887712205756E+04
 MD| Potential energy [hartree]          0.600089523670E+05   0.600237252039E+05
 MD| Kinetic energy [hartree]            0.203561083712E+03   0.868950559567E+02
 MD| Temperature [K]                           13954.071320          5956.638597
 MD| ***************************************************************************
 MD| Estimated peak process memory after this step [MiB]                     275

 ENERGY| Total FORCE_EVAL ( NNP ) energy [hartree]         60004.288068337133154

 MD| ***************************************************************************
 MD| Step number                                                              39
 MD| Time [fs]                                                         19.500000
 MD| Conserved quantity [hartree]                             0.602805405149E+05
 MD| ---------------------------------------------------------------------------
 MD|                                          Instantaneous             Averages
 MD| CPU time per MD step [s]                      0.086413             0.106615
 MD| Energy drift per atom [K]           0.249757104112E+05   0.928990637432E+04
 MD| Potential energy [hartree]          0.600042880683E+05   0.600232268158E+05
 MD| Kinetic energy [hartree]            0.222229726261E+03   0.903651757081E+02
 MD| Temperature [K]                           15233.803010          6194.514608
 MD| ***************************************************************************
 MD| Estimated peak process memory after this step [MiB]                     275

 ENERGY| Total FORCE_EVAL ( NNP ) energy [hartree]         60004.482296776113799

 MD| ***************************************************************************
 MD| Step number                                                              40
 MD| Time [fs]                                                         20.000000
 MD| Conserved quantity [hartree]                             0.603250038818E+05
 MD| ---------------------------------------------------------------------------
 MD|                                          Instantaneous             Averages
 MD| CPU time per MD step [s]                      0.089728             0.106193
 MD| Energy drift per atom [K]           0.295461544228E+05   0.979631257553E+04
 MD| Potential energy [hartree]          0.600044822968E+05   0.600227582028E+05
 MD| Kinetic energy [hartree]            0.262650463147E+03   0.946723078941E+02
 MD| Temperature [K]                           18004.636388          6489.767653
 MD| ***************************************************************************
 MD| Estimated peak process memory after this step [MiB]                     275

 ENERGY| Total FORCE_EVAL ( NNP ) energy [hartree]         59998.324147963539872

 MD| ***************************************************************************
 MD| Step number                                                              41
 MD| Time [fs]                                                         20.500000
 MD| Conserved quantity [hartree]                             0.603379350379E+05
 MD| ---------------------------------------------------------------------------
 MD|                                          Instantaneous             Averages
 MD| CPU time per MD step [s]                      0.147676             0.107205
 MD| Energy drift per atom [K]           0.308753638209E+05   0.103104357766E+05
 MD| Potential energy [hartree]          0.599983241480E+05   0.600221622503E+05
 MD| Kinetic energy [hartree]            0.277299318499E+03   0.991266252260E+02
 MD| Temperature [K]                           19008.812474          6795.110209
 MD| ***************************************************************************
 MD| Estimated peak process memory after this step [MiB]                     275

 ENERGY| Total FORCE_EVAL ( NNP ) energy [hartree]         59993.639143552485621

 MD| ***************************************************************************
 MD| Step number                                                              42
 MD| Time [fs]                                                         21.000000
 MD| Conserved quantity [hartree]                             0.603797360216E+05
 MD| ---------------------------------------------------------------------------
 MD|                                          Instantaneous             Averages
 MD| CPU time per MD step [s]                      0.156434             0.108377
 MD| Energy drift per atom [K]           0.351721382111E+05   0.109023810727E+05
 MD| Potential energy [hartree]          0.599936391436E+05   0.600214831287E+05
 MD| Kinetic energy [hartree]            0.318983146828E+03   0.104361304312E+03
 MD| Temperature [K]                           21866.230517          7153.946407
 MD| ***************************************************************************
 MD| Estimated peak process memory after this step [MiB]                     275

 ENERGY| Total FORCE_EVAL ( NNP ) energy [hartree]         59993.918436706982902

 MD| ***************************************************************************
 MD| Step number                                                              43
 MD| Time [fs]                                                         21.500000
 MD| Conserved quantity [hartree]                             0.604061477477E+05
 MD| ---------------------------------------------------------------------------
 MD|                                          Instantaneous             Averages
 MD| CPU time per MD step [s]                      0.103877             0.108272
 MD| Energy drift per atom [K]           0.378870319291E+05   0.115299310926E+05
 MD| Potential energy [hartree]          0.599939184367E+05   0.600208420893E+05
 MD| Kinetic energy [hartree]            0.339833564487E+03   0.109837403386E+03
 MD| Temperature [K]                           23295.522451          7529.331896
 MD| ***************************************************************************
 MD| Estimated peak process memory after this step [MiB]                     275

 ENERGY| Total FORCE_EVAL ( NNP ) energy [hartree]         59990.683391226200911

 MD| ***************************************************************************
 MD| Step number                                                              44
 MD| Time [fs]                                                         22.000000
 MD| Conserved quantity [hartree]                             0.604089728780E+05
 MD| ---------------------------------------------------------------------------
 MD|                                          Instantaneous             Averages
 MD| CPU time per MD step [s]                      0.089620             0.107848
 MD| Energy drift per atom [K]           0.381774305357E+05   0.121355560800E+05
 MD| Potential energy [hartree]          0.599906833912E+05   0.600201566644E+05
 MD| Kinetic energy [hartree]            0.340278071438E+03   0.115074691296E+03
 MD| Temperature [K]                           23325.993313          7888.346929
 MD| ***************************************************************************
 MD| Estimated peak process memory after this step [MiB]                     275

 ENERGY| Total FORCE_EVAL ( NNP ) energy [hartree]         59986.573594329922344

 MD| ***************************************************************************
 MD| Step number                                                              45
 MD| Time [fs]                                                         22.500000
 MD| Conserved quantity [hartree]                             0.604205773704E+05
 MD| ---------------------------------------------------------------------------
 MD|                                          Instantaneous             Averages
 MD| CPU time per MD step [s]                      0.091326             0.107481
 MD| Energy drift per atom [K]           0.393702705476E+05   0.127407719570E+05
 MD| Potential energy [hartree]          0.599865735943E+05   0.600194103739E+05
 MD| Kinetic energy [hartree]            0.350292168963E+03   0.120301746355E+03
 MD| Temperature [K]                           24012.457683          8246.660501
 MD| ***************************************************************************
 MD| Estimated peak process memory after this step [MiB]                     275

 ENERGY| Total FORCE_EVAL ( NNP ) energy [hartree]         59969.794910494085343

 MD| ***************************************************************************
 MD| Step number                                                              46
 MD| Time [fs]                                                         23.000000
 MD| Conserved quantity [hartree]                             0.604500466505E+05
 MD| ---------------------------------------------------------------------------
 MD|                                          Instantaneous             Averages
 MD| CPU time per MD step [s]                      0.083371             0.106957
 MD| Energy drift per atom [K]           0.423994539941E+05   0.133855259143E+05
 MD| Potential energy [hartree]          0.599697949105E+05   0.600183317769E+05
 MD| Kinetic energy [hartree]            0.390394974401E+03   0.126173338269E+03
 MD| Temperature [K]                           26761.496925          8649.156945
 MD| ***************************************************************************
 MD| Estimated peak process memory after this step [MiB]                     275

 ENERGY| Total FORCE_EVAL ( NNP ) energy [hartree]         59976.978400041429268

 MD| ***************************************************************************
 MD| Step number                                                              47
 MD| Time [fs]                                                         23.500000
 MD| Conserved quantity [hartree]                             0.604823463629E+05
 MD| ---------------------------------------------------------------------------
 MD|                                          Instantaneous             Averages
 MD| CPU time per MD step [s]                      0.102358             0.106859
 MD| Energy drift per atom [K]           0.457195810409E+05   0.140734845341E+05
 MD| Potential energy [hartree]          0.599769784000E+05   0.600174519178E+05
 MD| Kinetic energy [hartree]            0.408868626834E+03   0.132188131643E+03
 MD| Temperature [K]                           28027.862081          9061.469820
 MD| ***************************************************************************
 MD| Estimated peak process memory after this step [MiB]                     275

 ENERGY| Total FORCE_EVAL ( NNP ) energy [hartree]         59979.817031482692983

 MD| ***************************************************************************
 MD| Step number                                                              48
 MD| Time [fs]                                                         24.000000
 MD| Conserved quantity [hartree]                             0.605008702541E+05
 MD| ---------------------------------------------------------------------------
 MD|                                          Instantaneous             Averages
 MD| CPU time per MD step [s]                      0.104646             0.106813
 MD| Energy drift per atom [K]           0.476236745448E+05   0.147724468260E+05
 MD| Potential energy [hartree]          0.599798170315E+05   0.600166678577E+05
 MD| Kinetic energy [hartree]            0.417736920007E+03   0.138137064734E+03
 MD| Temperature [K]                           28635.781793          9469.267986
 MD| ***************************************************************************
 MD| Estimated peak process memory after this step [MiB]                     275

 ENERGY| Total FORCE_EVAL ( NNP ) energy [hartree]         59958.892338264857244

 MD| ***************************************************************************
 MD| Step number                                                              49
 MD| Time [fs]                                                         24.500000
 MD| Conserved quantity [hartree]                             0.605022585972E+05
 MD| ---------------------------------------------------------------------------
 MD|                                          Instantaneous             Averages
 MD| CPU time per MD step [s]                      0.102484             0.106725
 MD| Energy drift per atom [K]           0.477663840274E+05   0.154457924831E+05
 MD| Potential energy [hartree]          0.599588923383E+05   0.600154887655E+05
 MD| Kinetic energy [hartree]            0.433021573219E+03   0.144155115927E+03
 MD| Temperature [K]                           29683.541695          9881.804184
 MD| ***************************************************************************
 MD| Estimated peak process memory after this step [MiB]                     275

 ENERGY| Total FORCE_EVAL ( NNP ) energy [hartree]         59955.412250387635140

 MD| ***************************************************************************
 MD| Step number                                                              50
 MD| Time [fs]                                                         25.000000
 MD| Conserved quantity [hartree]                             0.605240804926E+05
 MD| ---------------------------------------------------------------------------
 MD|                                          Instantaneous             Averages
 MD| CPU time per MD step [s]                      0.151180             0.107614
 MD| Energy drift per atom [K]           0.500094834228E+05   0.161370663019E+05
 MD| Potential energy [hartree]          0.599554122504E+05   0.600142872352E+05
 MD| Kinetic energy [hartree]            0.451042757702E+03   0.150292868763E+03
 MD| Temperature [K]                           30918.890264         10302.545906
 MD| ***************************************************************************
 MD| Estimated peak process memory after this step [MiB]                     275

 ENERGY| Total FORCE_EVAL ( NNP ) energy [hartree]         59931.866945368856250

 MD| ***************************************************************************
 MD| Step number                                                              51
 MD| Time [fs]                                                         25.500000
 MD| Conserved quantity [hartree]                             0.605349563805E+05
 MD| ---------------------------------------------------------------------------
 MD|                                          Instantaneous             Averages
 MD| CPU time per MD step [s]                      0.098618             0.107437
 MD| Energy drift per atom [K]           0.511274292807E+05   0.168231518505E+05
 MD| Potential energy [hartree]          0.599318669454E+05   0.600126711510E+05
 MD| Kinetic energy [hartree]            0.477671695858E+03   0.156712061451E+03
 MD| Temperature [K]                           32744.298616         10742.580273
 MD| ***************************************************************************
 MD| Estimated peak process memory after this step [MiB]                     275

 ENERGY| Total FORCE_EVAL ( NNP ) energy [hartree]         59941.863360739152995

 MD| ***************************************************************************
 MD| Step number                                                              52
 MD| Time [fs]                                                         26.000000
 MD| Conserved quantity [hartree]                             0.605961700632E+05
 MD| ---------------------------------------------------------------------------
 MD|                                          Instantaneous             Averages
 MD| CPU time per MD step [s]                      0.101954             0.107332
 MD| Energy drift per atom [K]           0.574196588070E+05   0.176038539074E+05
 MD| Potential energy [hartree]          0.599418633607E+05   0.600113094628E+05
 MD| Kinetic energy [hartree]            0.520608482344E+03   0.163710069545E+03
 MD| Temperature [K]                           35687.606688         11222.292319
 MD| ***************************************************************************
 MD| Estimated peak process memory after this step [MiB]                     275

 ENERGY| Total FORCE_EVAL ( NNP ) energy [hartree]         59934.341369681380456

 MD| ***************************************************************************
 MD| Step number                                                              53
 MD| Time [fs]                                                         26.500000
 MD| Conserved quantity [hartree]                             0.606284659240E+05
 MD| ---------------------------------------------------------------------------
 MD|                                          Instantaneous             Averages
 MD| CPU time per MD step [s]                      0.097734             0.107151
 MD| Energy drift per atom [K]           0.607393899507E+05   0.184177319459E+05
 MD| Potential energy [hartree]          0.599343413697E+05   0.600098572346E+05
 MD| Kinetic energy [hartree]            0.551488127055E+03   0.171026636668E+03
 MD| Temperature [K]                           37804.400118         11723.841523
 MD| ***************************************************************************
 MD| Estimated peak process memory after this step [MiB]                     275

 ENERGY| Total FORCE_EVAL ( NNP ) energy [hartree]         59926.005810996153741

 MD| ***************************************************************************
 MD| Step number                                                              54
 MD| Time [fs]                                                         27.000000
 MD| Conserved quantity [hartree]                             0.606567636777E+05
 MD| ---------------------------------------------------------------------------
 MD|                                          Instantaneous             Averages
 MD| CPU time per MD step [s]                      0.137437             0.107712
 MD| Energy drift per atom [K]           0.636481507598E+05   0.192553322943E+05
 MD| Potential energy [hartree]          0.599260058110E+05   0.600083044305E+05
 MD| Kinetic energy [hartree]            0.578746411037E+03   0.178577002860E+03
 MD| Temperature [K]                           39672.949999         12241.417606
 MD| ***************************************************************************
 MD| Estimated peak process memory after this step [MiB]                     275

 ENERGY| Total FORCE_EVAL ( NNP ) energy [hartree]         59923.488816619676072

 MD| ***************************************************************************
 MD| Step number                                                              55
 MD| Time [fs]                                                         27.500000
 MD| Conserved quantity [hartree]                             0.606931068582E+05
 MD| ---------------------------------------------------------------------------
 MD|                                          Instantaneous             Averages
 MD| CPU time per MD step [s]                      0.099243             0.107558
 MD| Energy drift per atom [K]           0.673839108642E+05   0.201303973592E+05
 MD| Potential energy [hartree]          0.599234888166E+05   0.600067623284E+05
 MD| Kinetic energy [hartree]            0.607815730122E+03   0.186381343356E+03
 MD| Temperature [K]                           41665.645972         12776.403576
 MD| ***************************************************************************
 MD| Estimated peak process memory after this step [MiB]                     275

 ENERGY| Total FORCE_EVAL ( NNP ) energy [hartree]         59929.064408175778226

 MD| ***************************************************************************
 MD| Step number                                                              56
 MD| Time [fs]                                                         28.000000
 MD| Conserved quantity [hartree]                             0.607286959348E+05
 MD| ---------------------------------------------------------------------------
 MD|                                          Instantaneous             Averages
 MD| CPU time per MD step [s]                      0.090952             0.107261
 MD| Energy drift per atom [K]           0.710421556967E+05   0.210395359010E+05
 MD| Potential energy [hartree]          0.599290644082E+05   0.600053748655E+05
 MD| Kinetic energy [hartree]            0.627668060094E+03   0.194261463297E+03
 MD| Temperature [K]                           43026.519196         13316.584212
 MD| ***************************************************************************
 MD| Estimated peak process memory after this step [MiB]                     275

 ENERGY| Total FORCE_EVAL ( NNP ) energy [hartree]         59916.788328638060193

 MD| ***************************************************************************
 MD| Step number                                                              57
 MD| Time [fs]                                                         28.500000
 MD| Conserved quantity [hartree]                             0.607355786764E+05
 MD| ---------------------------------------------------------------------------
 MD|                                          Instantaneous             Averages
 MD| CPU time per MD step [s]                      0.116710             0.107427
 MD| Energy drift per atom [K]           0.717496411414E+05   0.219291868701E+05
 MD| Potential energy [hartree]          0.599167883286E+05   0.600038207158E+05
 MD| Kinetic energy [hartree]            0.636257315918E+03   0.202015776501E+03
 MD| Temperature [K]                           43615.310954         13848.140822
 MD| ***************************************************************************
 MD| Estimated peak process memory after this step [MiB]                     275

 ENERGY| Total FORCE_EVAL ( NNP ) energy [hartree]         59904.788433773705037

 MD| ***************************************************************************
 MD| Step number                                                              58
 MD| Time [fs]                                                         29.000000
 MD| Conserved quantity [hartree]                             0.607669938910E+05
 MD| ---------------------------------------------------------------------------
 MD|                                          Instantaneous             Averages
 MD| CPU time per MD step [s]                      0.094123             0.107198
 MD| Energy drift per atom [K]           0.749788495885E+05   0.228438362273E+05
 MD| Potential energy [hartree]          0.599047884338E+05   0.600021132626E+05
 MD| Kinetic energy [hartree]            0.668749869552E+03   0.210062916037E+03
 MD| Temperature [K]                           45842.668966         14399.770617
 MD| ***************************************************************************
 MD| Estimated peak process memory after this step [MiB]                     275

 ENERGY| Total FORCE_EVAL ( NNP ) energy [hartree]         59884.933021456767165

 MD| ***************************************************************************
 MD| Step number                                                              59
 MD| Time [fs]                                                         29.500000
 MD| Conserved quantity [hartree]                             0.608001116199E+05
 MD| ---------------------------------------------------------------------------
 MD|                                          Instantaneous             Averages
 MD| CPU time per MD step [s]                      0.105452             0.107168
 MD| Energy drift per atom [K]           0.783830615637E+05   0.237851790296E+05
 MD| Potential energy [hartree]          0.598849330215E+05   0.600001271568E+05
 MD| Kinetic energy [hartree]            0.710287608057E+03   0.218541300647E+03
[...]
 MD| Conserved quantity [hartree]                             0.666703252311E+05
 MD| ---------------------------------------------------------------------------
 MD|                                          Instantaneous             Averages
 MD| CPU time per MD step [s]                      0.082480             0.107692
 MD| Energy drift per atom [K]           0.681789518656E+06   0.121562204811E+06
 MD| Potential energy [hartree]          0.584901179988E+05   0.597723420981E+05
 MD| Kinetic energy [hartree]            0.649532068956E+04   0.116382376872E+04
 MD| Temperature [K]                          445252.926031         79779.885116
 MD| ***************************************************************************
 MD| Estimated peak process memory after this step [MiB]                     275

 ENERGY| Total FORCE_EVAL ( NNP ) energy [hartree]         58482.014456512464676

 MD| ***************************************************************************
 MD| Step number                                                              91
 MD| Time [fs]                                                         45.500000
 MD| Conserved quantity [hartree]                             0.670406283706E+05
 MD| ---------------------------------------------------------------------------
 MD|                                          Instantaneous             Averages
 MD| CPU time per MD step [s]                      0.083855             0.107431
 MD| Energy drift per atom [K]           0.719853432549E+06   0.128136833687E+06
 MD| Potential energy [hartree]          0.584820144565E+05   0.597581626735E+05
 MD| Kinetic energy [hartree]            0.676316754334E+04   0.122535501899E+04
 MD| Temperature [K]                          463613.773951         83997.839939
 MD| ***************************************************************************
 MD| Estimated peak process memory after this step [MiB]                     275

 ENERGY| Total FORCE_EVAL ( NNP ) energy [hartree]         58386.248650295885454

 MD| ***************************************************************************
 MD| Step number                                                              92
 MD| Time [fs]                                                         46.000000
 MD| Conserved quantity [hartree]                             0.673781340755E+05
 MD| ---------------------------------------------------------------------------
 MD|                                          Instantaneous             Averages
 MD| CPU time per MD step [s]                      0.084356             0.107180
 MD| Energy drift per atom [K]           0.754546057914E+06   0.134945629602E+06
 MD| Potential energy [hartree]          0.583862486503E+05   0.597432505645E+05
 MD| Kinetic energy [hartree]            0.708063368252E+04   0.128899935229E+04
 MD| Temperature [K]                          485376.013900         88360.646178
 MD| ***************************************************************************
 MD| Estimated peak process memory after this step [MiB]                     275

 ENERGY| Total FORCE_EVAL ( NNP ) energy [hartree]         58199.311621555141755

 MD| ***************************************************************************
 MD| Step number                                                              93
 MD| Time [fs]                                                         46.500000
 MD| Conserved quantity [hartree]                             0.677457464566E+05
 MD| ---------------------------------------------------------------------------
 MD|                                          Instantaneous             Averages
 MD| CPU time per MD step [s]                      0.091578             0.107012
 MD| Energy drift per atom [K]           0.792333385464E+06   0.142014315149E+06
 MD| Potential energy [hartree]          0.581993116216E+05   0.597266490705E+05
 MD| Kinetic energy [hartree]            0.751403889350E+04   0.135593526134E+04
 MD| Temperature [K]                          515085.853886         92949.089271
 MD| ***************************************************************************
 MD| Estimated peak process memory after this step [MiB]                     275

 ENERGY| Total FORCE_EVAL ( NNP ) energy [hartree]         58034.011426922857936

 MD| ***************************************************************************
 MD| Step number                                                              94
 MD| Time [fs]                                                         47.000000
 MD| Conserved quantity [hartree]                             0.681133371565E+05
 MD| ---------------------------------------------------------------------------
 MD|                                          Instantaneous             Averages
 MD| CPU time per MD step [s]                      0.090168             0.106833
 MD| Energy drift per atom [K]           0.830118484359E+06   0.149334572269E+06
 MD| Potential energy [hartree]          0.580340114269E+05   0.597086422871E+05
 MD| Kinetic energy [hartree]            0.791924379906E+04   0.142575769259E+04
 MD| Temperature [K]                          542862.568611         97735.402881
 MD| ***************************************************************************
 MD| Estimated peak process memory after this step [MiB]                     275

 ENERGY| Total FORCE_EVAL ( NNP ) energy [hartree]         57917.418258911449811

 MD| ***************************************************************************
 MD| Step number                                                              95
 MD| Time [fs]                                                         47.500000
 MD| Conserved quantity [hartree]                             0.685322849061E+05
 MD| ---------------------------------------------------------------------------
 MD|                                          Instantaneous             Averages
 MD| CPU time per MD step [s]                      0.086494             0.106619
 MD| Energy drift per atom [K]           0.873182637396E+06   0.156954025586E+06
 MD| Potential energy [hartree]          0.579174182589E+05   0.596897872973E+05
 MD| Kinetic energy [hartree]            0.831917260118E+04   0.149831995478E+04
 MD| Temperature [K]                          570277.607507        102709.531351
 MD| ***************************************************************************
 MD| Estimated peak process memory after this step [MiB]                     275

 ENERGY| Total FORCE_EVAL ( NNP ) energy [hartree]         57710.723929071114981

 MD| ***************************************************************************
 MD| Step number                                                              96
 MD| Time [fs]                                                         48.000000
 MD| Conserved quantity [hartree]                             0.688947002034E+05
 MD| ---------------------------------------------------------------------------
 MD|                                          Instantaneous             Averages
 MD| CPU time per MD step [s]                      0.107632             0.106629
 MD| Energy drift per atom [K]           0.910435750324E+06   0.164802793552E+06
 MD| Potential energy [hartree]          0.577107239291E+05   0.596691720539E+05
 MD| Kinetic energy [hartree]            0.874585621738E+04   0.157381512419E+04
 MD| Temperature [K]                          599526.683524        107884.710019
 MD| ***************************************************************************
 MD| Estimated peak process memory after this step [MiB]                     275

 ENERGY| Total FORCE_EVAL ( NNP ) energy [hartree]         57630.675170010792499

 MD| ***************************************************************************
 MD| Step number                                                              97
 MD| Time [fs]                                                         48.500000
 MD| Conserved quantity [hartree]                             0.696545674524E+05
 MD| ---------------------------------------------------------------------------
 MD|                                          Instantaneous             Averages
 MD| CPU time per MD step [s]                      0.087521             0.106432
 MD| Energy drift per atom [K]           0.988543436847E+06   0.173294965132E+06
 MD| Potential energy [hartree]          0.576306751700E+05   0.596481566221E+05
 MD| Kinetic energy [hartree]            0.943433306266E+04   0.165485139159E+04
 MD| Temperature [K]                          646721.632706        113439.729841
 MD| ***************************************************************************
 MD| Estimated peak process memory after this step [MiB]                     275

 ENERGY| Total FORCE_EVAL ( NNP ) energy [hartree]         57504.422791853772651

 MD| ***************************************************************************
 MD| Step number                                                              98
 MD| Time [fs]                                                         49.000000
 MD| Conserved quantity [hartree]                             0.707694030010E+05
 MD| ---------------------------------------------------------------------------
 MD|                                          Instantaneous             Averages
 MD| CPU time per MD step [s]                      0.099738             0.106364
 MD| Energy drift per atom [K]           0.110313875027E+07   0.182783167021E+06
 MD| Potential energy [hartree]          0.575044227919E+05   0.596262817871E+05
 MD| Kinetic energy [hartree]            0.105107253141E+05   0.174521745203E+04
 MD| Temperature [K]                          720508.104913        119634.305097
 MD| ***************************************************************************
 MD| Estimated peak process memory after this step [MiB]                     275

 ENERGY| Total FORCE_EVAL ( NNP ) energy [hartree]         57327.520090584221180

 MD| ***************************************************************************
 MD| Step number                                                              99
 MD| Time [fs]                                                         49.500000
 MD| Conserved quantity [hartree]                             0.713052846199E+05
 MD| ---------------------------------------------------------------------------
 MD|                                          Instantaneous             Averages
 MD| CPU time per MD step [s]                      0.133105             0.106634
 MD| Energy drift per atom [K]           0.115822267915E+07   0.192636091386E+06
 MD| Potential energy [hartree]          0.573275200906E+05   0.596030619720E+05
 MD| Kinetic energy [hartree]            0.110440743447E+05   0.183914529943E+04
 MD| Temperature [K]                          757069.073614        126073.040132
 MD| ***************************************************************************
 MD| Estimated peak process memory after this step [MiB]                     275

 ENERGY| Total FORCE_EVAL ( NNP ) energy [hartree]         57286.940196505107451

 MD| ***************************************************************************
 MD| Step number                                                             100
 MD| Time [fs]                                                         50.000000
 MD| Conserved quantity [hartree]                             0.721181808592E+05
 MD| ---------------------------------------------------------------------------
 MD|                                          Instantaneous             Averages
 MD| CPU time per MD step [s]                      0.137205             0.106940
 MD| Energy drift per atom [K]           0.124178128063E+07   0.203127543279E+06
 MD| Potential energy [hartree]          0.572869401965E+05   0.595799007542E+05
 MD| Kinetic energy [hartree]            0.117071222348E+05   0.193782506878E+04
 MD| Temperature [K]                          802520.873039        132837.518461
 MD| ***************************************************************************
 MD| Estimated peak process memory after this step [MiB]                     275

 -------------------------------------------------------------------------------
 -                                                                             -
 -                                DBCSR STATISTICS                             -
 -                                                                             -
 -------------------------------------------------------------------------------
 COUNTER                                    TOTAL       BLAS       SMM       ACC
 flops inhomo. stacks                           0       0.0%      0.0%      0.0%
 flops total                         0.000000E+00       0.0%      0.0%      0.0%
 flops max/rank                      0.000000E+00       0.0%      0.0%      0.0%
 matmuls inhomo. stacks                         0       0.0%      0.0%      0.0%
 matmuls total                                  0       0.0%      0.0%      0.0%
 number of processed stacks                     0       0.0%      0.0%      0.0%
 average stack size                                     0.0       0.0       0.0
 marketing flops                     0.000000E+00
 -------------------------------------------------------------------------------
 -                                                                             -
 -                      DBCSR MESSAGE PASSING PERFORMANCE                      -
 -                                                                             -
 -------------------------------------------------------------------------------
 ROUTINE             CALLS      AVE VOLUME [Bytes]
 MP_Bcast                1                     12.
 MP_Allreduce           19                     21.
 -------------------------------------------------------------------------------

 MEMORY| Estimated peak process memory [MiB]                                 275

 -------------------------------------------------------------------------------
 -                                                                             -
 -                         MESSAGE PASSING PERFORMANCE                         -
 -                                                                             -
 -------------------------------------------------------------------------------

 ROUTINE             CALLS      AVE VOLUME [Bytes]
 MP_Bcast              286                 179373.
 MP_Allreduce         1444                  17334.
 -------------------------------------------------------------------------------


 -------------------------------------------------------------------------------
 -                                                                             -
 -                           R E F E R E N C E S                               -
 -                                                                             -
 -------------------------------------------------------------------------------
 
 CP2K version 2026.1 (Development Version), the CP2K developers group (2026).
 CP2K is freely available from https://www.cp2k.org/ .
 
 C. Schran, J. Behler, D. Marx.
 J. Chem. Theory Comput. 16, 88-99 (2020).
 Automated Fitting of Neural Network Potentials at Coupled Cluster Accuracy: 
 Protonated Water Clusters as Testing Ground.
 https://doi.org/10.1021/acs.jctc.9b00805

 C. Schran, K. Brezina, O. Marsalek.
 J. Chem. Phys. 153, 104105 (2020).
 Committee neural network potentials control generalization errors and enable 
 active learning.
 https://doi.org/10.1063/5.0016004

 O. Schuett, P. Messmer, J. Hutter, J. VandeVondele.
 Electronic Structure Calculations on Graphics Processing Units, 173-190 (2016).
 GPU-Accelerated Sparse Matrix-Matrix Multiplication for Linear Scaling Density 
 Functional Theory.
 https://doi.org/10.1002/9781118670712.ch8

 A. Heinecke, G. Henry, M. Hutchinson, H. Pabst.
 Proceedings of Intl. Supercomputing Conference, 981-991 (2016).
 LIBXSMM: Accelerating Small Matrix Multiplications by Runtime Code Generation.
 https://doi.org/10.1109/SC.2016.83

 J. Hutter, M. Iannuzzi, F. Schiffmann, J. VandeVondele.
 WIREs Comput Mol Sci. 4, 15-25 (2014).
 CP2K: atomistic simulations of condensed matter systems.
 https://doi.org/10.1002/wcms.1159

 U. Borstnik, J. VandeVondele, V. Weber, J. Hutter.
 Parallel Comput. 40, 47-58 (2014).
 Sparse matrix multiplication: The distributed block-compressed sparse row 
 library.
 https://doi.org/10.1016/j.parco.2014.03.012

 J. Behler.
 J. Chem. Phys. 134, 074106 (2011).
 Atom-centered symmetry functions for constructing high-dimensional neural 
 network potentials.
 https://doi.org/10.1063/1.3553717

 G. Bussi, D. Donadio, M. Parrinello.
 J. Chem. Phys. 126, 014101 (2007).
 Canonical sampling through velocity rescaling.
 https://doi.org/10.1063/1.2408420

 J. Behler, M. Parrinello.
 Phys. Rev. Lett. 98, 146401 (2007).
 Generalized neural-network representation of high-dimensional potential-energy 
 surfaces.
 https://doi.org/10.1103/PhysRevLett.98.146401

 M. Frigo, S. G. Johnson.
 Proc. IEEE 93, 216-231 (2005).
 The design and implementation of FFTW3.
 https://doi.org/10.1109/JPROC.2004.840301


 -------------------------------------------------------------------------------
 -                                                                             -
 -                                T I M I N G                                  -
 -                                                                             -
 -------------------------------------------------------------------------------
 SUBROUTINE                       CALLS  ASD         SELF TIME        TOTAL TIME
                                MAXIMUM       AVERAGE  MAXIMUM  AVERAGE  MAXIMUM
 CP2K                                 1  1.0    0.007    0.008   11.125   11.125
 qs_mol_dyn_low                       1  2.0    0.004    0.005   10.747   10.994
 velocity_verlet                    100  3.0    0.008    0.013   10.349   10.449
 nnp_calc_energy_force              101  4.0    0.115    1.151    6.705    6.706
 nnp_calc_acsf                     8686  5.0    0.164    0.181    4.104    5.399
 nnp_acsf_angular                  8686  6.0    3.775    5.044    3.775    5.044
 md_output                          100  3.0    0.000    0.000    0.294    3.866
 csvr_particles                     200  4.0    0.154    0.183    3.598    3.697
 mp_sum_dv                          609  4.4    3.573    3.684    3.573    3.684
 md_write_output                    101  4.0    0.034    1.086    0.105    3.394
 mp_sum_dm                          301  5.0    1.427    2.414    1.427    2.414
 write_trajectory                   404  5.0    0.053    1.788    0.067    2.305
 mp_sum_b                           101  5.0    1.032    1.062    1.032    1.062
 write_restart                      100  4.0    0.015    0.499    0.191    0.551
 write_particle_coordinates         101  6.0    0.014    0.518    0.014    0.518
 mp_max_l                           123  4.4    0.249    0.257    0.249    0.257
 -------------------------------------------------------------------------------

 The number of warnings for this run is : 0
 
 -------------------------------------------------------------------------------
  **** **** ******  **  PROGRAM ENDED AT                 2026-05-02 15:46:19.142
 ***** ** ***  *** **   PROGRAM RAN ON                             phy-cerberus4
 **    ****   ******    PROGRAM RAN BY                                     crm98
 ***** **    ** ** **   PROGRAM PROCESS ID                               1225661
  **** **  *******  **  PROGRAM STOPPED IN /lsc/zeushome/crm98/cp2k-benchmarks/r
                                           esults/cp2k_optimized/NNP/NNP_size_sc
                                           aling_feature-nnp-verlet-cells_02-05_
                                           15-45/N_1024
