 DBCSR| CPU Multiplication driver                                           XSMM (U)
 DBCSR| Multrec recursion limit                                              512 (U)
 DBCSR| Multiplication stack size                                           1000 (D)
 DBCSR| Maximum elements for images                                    UNLIMITED (U)
 DBCSR| Multiplicative factor virtual images                                   1 (U)
 DBCSR| Use multiplication densification                                       T (D)
 DBCSR| Multiplication size stacks                                             3 (U)
 DBCSR| Use memory pool for CPU allocation                                     F (U)
 DBCSR| Number of 3D layers                                               SINGLE (U)
 DBCSR| Use MPI memory allocation                                              F (U)
 DBCSR| Use RMA algorithm                                                      F (U)
 DBCSR| Use Communication thread                                               T (U)
 DBCSR| Communication thread load                                             87 (D)
 DBCSR| MPI: My process id                                                     0
 DBCSR| MPI: Number of processes                                              32
 DBCSR| OMP: Current number of threads                                         1
 DBCSR| OMP: Max number of threads                                             1
 DBCSR| Split modifier for TAS multiplication algorithm                  1.0E+00 (U)


  **** **** ******  **  PROGRAM STARTED AT               2026-04-30 04:03:21.264
 ***** ** ***  *** **   PROGRAM STARTED ON                         phy-cerberus4
 **    ****   ******    PROGRAM STARTED BY                                 crm98
 ***** **    ** ** **   PROGRAM PROCESS ID                                870859
  **** **  *******  **  PROGRAM STARTED IN /lsc/zeushome/crm98/cp2k_benchmarks/c
                                           p2k_optimized/NNP/NNP_size_scaling_fe
                                           ature-nnp-verlet-cells_30-04_04-02/N_
                                           2048

 CP2K| version string:                 CP2K version 2026.1 (Development Version)
 CP2K| source code revision number:                                   151b7d1223
 CP2K| cp2kflags: omp libint fftw3 libxc parallel scalapack mpi_f08 cosma ace de
 CP2K|            epmd xsmm plumed2 spglib libdftd4 dftd4_v3 mctc-lib tblite lib
 CP2K|            bvori libbqb libtorch mimic hdf5 trexio libsmeagol greenx
 CP2K| is freely available from                            https://www.cp2k.org/
 CP2K| Program compiled at                                   2026-04-29 19:17:47
 CP2K| Program compiled on                                         phy-cerberus4
 CP2K| Program compiled for                                               x86_64
 CP2K| Data directory path           /local/data/public/crm98/original_cp2k/data
 CP2K| Input file name                                                   run.inp

 GLOBAL| Force Environment number                                              1
 GLOBAL| Basis set file name                                           BASIS_SET
 GLOBAL| Potential file name                                           POTENTIAL
 GLOBAL| MM Potential file name                                     MM_POTENTIAL
 GLOBAL| Coordinate file name                                      __STD_INPUT__
 GLOBAL| Method name                                                        CP2K
 GLOBAL| Project name                                              H2O-64_NNP_MD
 GLOBAL| Run type                                                             MD
 GLOBAL| FFT library                                                       FFTW3
 GLOBAL| Diagonalization library                                       ScaLAPACK
 GLOBAL| Cholesky decomposition library                                ScaLAPACK
 GLOBAL| DGEMM library                                                      BLAS
 GLOBAL| Orthonormality check for eigenvectors                          DISABLED
 GLOBAL| Matrix multiplication library                                     COSMA
 GLOBAL| All-to-all communication in single precision                          F
 GLOBAL| FFTs using library dependent lengths                                  F
 GLOBAL| Grid backend                                                       AUTO
 GLOBAL| Global print level                                                  LOW
 GLOBAL| MPI I/O enabled                                                       T
 GLOBAL| Total number of message passing processes                            32
 GLOBAL| Number of distributed systems (nodes)                                 1
 GLOBAL| Number of threads for this process                                    1
 GLOBAL| This output is from process                                           0
 GLOBAL| OpenMP stack size per thread (OMP_STACKSIZE)                    default
 GLOBAL| CPU model name                              Intel(R) Xeon(R) Gold 5418Y
 GLOBAL| CPUID                                                              1003

 MEMORY| system memory details [Kb]
 MEMORY|                        rank 0           min           max       average
 MEMORY| MemTotal            263594404     263594404     263594404     263594404
 MEMORY| MemFree              60212912      60212912      60212912      60212912
 MEMORY| Buffers               2790904       2790904       2790904       2790904
 MEMORY| Cached              182984768     182984768     182984768     182984768
 MEMORY| Slab                  9781536       9781536       9781536       9781536
 MEMORY| SReclaimable          8162508       8162508       8162508       8162508
 MEMORY| MemLikelyFree       254151092     254151092     254151092     254151092


 GENERATE|  Preliminary Number of Bonds generated:                             0
 GENERATE|  Achieved consistency in connectivity generation.
 
 NNP| Neural Network Potential Force Environment
 NNP| Reading NNP input from file: NNP/bulkH2O-jcp2020-cnnp/nnp-1/input.nn
 NNP| Activation functions:  1  1  3
 NNP| short range atomic symmetry functions element H :
 NNP|   1 H   2 H             0.001  0.000 12.000
 NNP|   2 H   2 O             0.001  0.000 12.000
 NNP|   3 H   2 H             0.010  0.000 12.000
 NNP|   4 H   2 O             0.010  0.000 12.000
 NNP|   5 H   2 H             0.030  0.000 12.000
 NNP|   6 H   2 O             0.030  0.000 12.000
 NNP|   7 H   2 H             0.060  0.000 12.000
 NNP|   8 H   2 O             0.060  0.000 12.000
 NNP|   9 H   2 O             0.150  0.900 12.000
 NNP|  10 H   2 H             0.150  1.900 12.000
 NNP|  11 H   2 O             0.300  0.900 12.000
 NNP|  12 H   2 H             0.300  1.900 12.000
 NNP|  13 H   2 O             0.600  0.900 12.000
 NNP|  14 H   2 H             0.600  1.900 12.000
 NNP|  15 H   2 O             1.500  0.900 12.000
 NNP|  16 H   2 H             1.500  1.900 12.000
 NNP|   1 H   3 O  O   0.001 -1.000  4.000 12.000
 NNP|   2 H   3 O  O   0.001  1.000  4.000 12.000
 NNP|   3 H   3 H  O   0.010 -1.000  4.000 12.000
 NNP|   4 H   3 H  O   0.010  1.000  4.000 12.000
 NNP|   5 H   3 H  O   0.030 -1.000  1.000 12.000
 NNP|   6 H   3 O  O   0.030 -1.000  1.000 12.000
 NNP|   7 H   3 H  O   0.030  1.000  1.000 12.000
 NNP|   8 H   3 O  O   0.030  1.000  1.000 12.000
 NNP|   9 H   3 H  O   0.070 -1.000  1.000 12.000
 NNP|  10 H   3 H  O   0.070  1.000  1.000 12.000
 NNP|  11 H   3 H  O   0.200  1.000  1.000 12.000
 NNP| short range atomic symmetry functions element O :
 NNP|   1 O   2 H             0.001  0.000 12.000
 NNP|   2 O   2 O             0.001  0.000 12.000
 NNP|   3 O   2 H             0.010  0.000 12.000
 NNP|   4 O   2 O             0.010  0.000 12.000
 NNP|   5 O   2 H             0.030  0.000 12.000
 NNP|   6 O   2 O             0.030  0.000 12.000
 NNP|   7 O   2 H             0.060  0.000 12.000
 NNP|   8 O   2 O             0.060  0.000 12.000
 NNP|   9 O   2 H             0.150  0.900 12.000
 NNP|  10 O   2 O             0.150  4.000 12.000
 NNP|  11 O   2 H             0.300  0.900 12.000
 NNP|  12 O   2 O             0.300  4.000 12.000
 NNP|  13 O   2 H             0.600  0.900 12.000
 NNP|  14 O   2 O             0.600  4.000 12.000
 NNP|  15 O   2 H             1.500  0.900 12.000
 NNP|  16 O   2 O             1.500  4.000 12.000
 NNP|   1 O   3 H  O   0.001 -1.000  4.000 12.000
 NNP|   2 O   3 O  O   0.001 -1.000  4.000 12.000
 NNP|   3 O   3 H  O   0.001  1.000  4.000 12.000
 NNP|   4 O   3 O  O   0.001  1.000  4.000 12.000
 NNP|   5 O   3 H  H   0.010 -1.000  4.000 12.000
 NNP|   6 O   3 H  H   0.010  1.000  4.000 12.000
 NNP|   7 O   3 H  H   0.030 -1.000  1.000 12.000
 NNP|   8 O   3 H  O   0.030 -1.000  1.000 12.000
 NNP|   9 O   3 O  O   0.030 -1.000  1.000 12.000
 NNP|  10 O   3 H  H   0.030  1.000  1.000 12.000
 NNP|  11 O   3 H  O   0.030  1.000  1.000 12.000
 NNP|  12 O   3 O  O   0.030  1.000  1.000 12.000
 NNP|  13 O   3 H  H   0.070 -1.000  1.000 12.000
 NNP|  14 O   3 H  H   0.070  1.000  1.000 12.000
 NNP| Neural network specification for element H :
 NNP|  27 nodes in layer  1
 NNP|  20 nodes in layer  2
 NNP|  20 nodes in layer  3
 NNP|   1 nodes in layer  4
 NNP| Neural network specification for element O :
 NNP|  30 nodes in layer  1
 NNP|  20 nodes in layer  2
 NNP|  20 nodes in layer  3
 NNP|   1 nodes in layer  4
 NNP| Reading scaling information from file: NNP/bulkH2O-jcp2020-cnnp/nnp-1/input.nn
 NNP| Initializing weights for model:            1
 NNP| Reading weights from file: NNP/bulkH2O-jcp2020-cnnp/nnp-1/weights.001.data
 NNP| Reading weights from file: NNP/bulkH2O-jcp2020-cnnp/nnp-1/weights.008.data
 NNP| NNP force environment initialized

 MD_PAR| Molecular dynamics protocol (MD input parameters)
 MD_PAR| Ensemble type                                                       NVT
 MD_PAR| Number of time steps                                                100
 MD_PAR| Time step [fs]                                                 0.500000
 MD_PAR| Temperature [K]                                              300.000000
 MD_PAR| Temperature tolerance [K]                                      0.000000
 MD_PAR| Print MD information every                                    1 step(s)
 MD_PAR| File type   Print frequency [steps]                          File names
 MD_PAR| Coordinates          1                          H2O-64_NNP_MD-pos-1.xyz
 MD_PAR| Velocities           1                          H2O-64_NNP_MD-vel-1.xyz
 MD_PAR| Energies             1                             H2O-64_NNP_MD-1.ener
 MD_PAR| Dump                20                          H2O-64_NNP_MD-1.restart

 ROT| Rotational analysis information
 ROT| Principal axes and moments of inertia [a.u.]
 ROT|                           1                   2                   3
 ROT| Eigenvalues      8.91429797275E+10   9.79102592871E+10   1.34650950643E+11
 ROT|      x              0.932766664286      0.356451091023      0.053749136779
 ROT|      y             -0.358613566032      0.932718574519      0.037846677602
 ROT|      z             -0.036642328715     -0.054577288832      0.997836990340
 ROT| Number of rotovibrational vectors                                        6

 DOF| Calculation of degrees of freedom
 DOF| Number of atoms                                                       6144
 DOF| Number of intramolecular constraints                                     0
 DOF| Number of intermolecular constraints                                     0
 DOF| Invariants (translations + rotations)                                    3
 DOF| Degrees of freedom                                                   18429

 DOF| Restraints information
 DOF| Number of intramolecular restraints                                      0
 DOF| Number of intermolecular restraints                                      0

 THERMOSTAT| Thermostat information for PARTICLES
 THERMOSTAT| Type of thermostat            Canonical Sampling/Velocity Rescaling
 THERMOSTAT| CSVR time constant [fs]                                   30.000000
 THERMOSTAT| Initial kinetic energy                           0.000000000000E+00
 THERMOSTAT| End of thermostat information for PARTICLES

 MD_VEL| Velocities initialization
 MD_VEL| Initial temperature [K]                                      300.000000
 MD_VEL| COM velocity             0.0000000000     0.0000000000    -0.0000000000

 ENERGY| Total FORCE_EVAL ( NNP ) energy [hartree]        120063.094948517871671

 MD_INI| MD initialization
 MD_INI| Potential energy [hartree]                           0.120063094949E+06
 MD_INI| Kinetic energy [hartree]                             0.875418599421E+01
 MD_INI| Temperature [K]                                              300.000000
 MD_INI| Cell volume [bohr^3]                                 4.137246265883E+05
 MD_INI| Cell volume [ang^3]                                  6.130766361600E+04
 MD_INI| Cell lengths [bohr]      9.38815943E+01  9.38815943E+01  4.69407971E+01
 MD_INI| Cell lengths [ang]       4.96800000E+01  4.96800000E+01  2.48400000E+01
 MD_INI| Cell angles [deg]        9.00000000E+01  9.00000000E+01  9.00000000E+01

 ENERGY| Total FORCE_EVAL ( NNP ) energy [hartree]        120061.285008856633794

 MD| ***************************************************************************
 MD| Step number                                                               1
 MD| Time [fs]                                                          0.500000
 MD| Conserved quantity [hartree]                             0.120070840749E+06
 MD| ---------------------------------------------------------------------------
 MD|                                          Instantaneous             Averages
 MD| CPU time per MD step [s]                      0.385388             0.385388
 MD| Energy drift per atom [K]          -0.518265947725E+02   0.000000000000E+00
 MD| Potential energy [hartree]          0.120061285009E+06   0.120061285009E+06
 MD| Kinetic energy [hartree]            0.952996484797E+01   0.952996484797E+01
 MD| Temperature [K]                             326.585414           326.585414
 MD| ***************************************************************************
 MD| Estimated peak process memory after this step [MiB]                     283

 ENERGY| Total FORCE_EVAL ( NNP ) energy [hartree]        120059.982133568671998

 MD| ***************************************************************************
 MD| Step number                                                               2
 MD| Time [fs]                                                          1.000000
 MD| Conserved quantity [hartree]                             0.120071325371E+06
 MD| ---------------------------------------------------------------------------
 MD|                                          Instantaneous             Averages
 MD| CPU time per MD step [s]                      0.193455             0.289421
 MD| Energy drift per atom [K]          -0.269191642036E+02  -0.134595821018E+02
 MD| Potential energy [hartree]          0.120059982134E+06   0.120060633571E+06
 MD| Kinetic energy [hartree]            0.112897114872E+02   0.104098381676E+02
 MD| Temperature [K]                             386.890734           356.738074
 MD| ***************************************************************************
 MD| Estimated peak process memory after this step [MiB]                     283

 ENERGY| Total FORCE_EVAL ( NNP ) energy [hartree]        120059.404391173346085

 MD| ***************************************************************************
 MD| Step number                                                               3
 MD| Time [fs]                                                          1.500000
 MD| Conserved quantity [hartree]                             0.120072224931E+06
 MD| ---------------------------------------------------------------------------
 MD|                                          Instantaneous             Averages
 MD| CPU time per MD step [s]                      0.139673             0.239505
 MD| Energy drift per atom [K]           0.193142679099E+02  -0.253496543121E+01
 MD| Potential energy [hartree]          0.120059404391E+06   0.120060223845E+06
 MD| Kinetic energy [hartree]            0.127046724271E+02   0.111747829208E+02
 MD| Temperature [K]                             435.380483           382.952210
 MD| ***************************************************************************
 MD| Estimated peak process memory after this step [MiB]                     283

 ENERGY| Total FORCE_EVAL ( NNP ) energy [hartree]        120060.054512935530511

 MD| ***************************************************************************
 MD| Step number                                                               4
 MD| Time [fs]                                                          2.000000
 MD| Conserved quantity [hartree]                             0.120072974741E+06
 MD| ---------------------------------------------------------------------------
 MD|                                          Instantaneous             Averages
 MD| CPU time per MD step [s]                      0.143901             0.215604
 MD| Energy drift per atom [K]           0.578512217470E+02   0.125615813634E+02
 MD| Potential energy [hartree]          0.120060054513E+06   0.120060181512E+06
 MD| Kinetic energy [hartree]            0.127383908886E+02   0.115656849127E+02
 MD| Temperature [K]                             436.535992           396.348156
 MD| ***************************************************************************
 MD| Estimated peak process memory after this step [MiB]                     283

 ENERGY| Total FORCE_EVAL ( NNP ) energy [hartree]        120059.498085507017095

 MD| ***************************************************************************
 MD| Step number                                                               5
 MD| Time [fs]                                                          2.500000
 MD| Conserved quantity [hartree]                             0.120072828425E+06
 MD| ---------------------------------------------------------------------------
 MD|                                          Instantaneous             Averages
 MD| CPU time per MD step [s]                      0.165347             0.205553
 MD| Energy drift per atom [K]           0.503312539877E+02   0.201155158882E+02
 MD| Potential energy [hartree]          0.120059498086E+06   0.120060044826E+06
 MD| Kinetic energy [hartree]            0.130987917250E+02   0.118723062752E+02
 MD| Temperature [K]                             448.886683           406.855861
 MD| ***************************************************************************
 MD| Estimated peak process memory after this step [MiB]                     283

 ENERGY| Total FORCE_EVAL ( NNP ) energy [hartree]        120055.407115097390488

 MD| ***************************************************************************
 MD| Step number                                                               6
 MD| Time [fs]                                                          3.000000
 MD| Conserved quantity [hartree]                             0.120071259458E+06
 MD| ---------------------------------------------------------------------------
 MD|                                          Instantaneous             Averages
 MD| CPU time per MD step [s]                      0.198031             0.204299
 MD| Energy drift per atom [K]          -0.303067709257E+02   0.117118014192E+02
 MD| Potential energy [hartree]          0.120055407115E+06   0.120059271875E+06
 MD| Kinetic energy [hartree]            0.155604909913E+02   0.124870037279E+02
 MD| Temperature [K]                             533.247443           427.921125
 MD| ***************************************************************************
 MD| Estimated peak process memory after this step [MiB]                     283

 ENERGY| Total FORCE_EVAL ( NNP ) energy [hartree]        120053.266217968688579

 MD| ***************************************************************************
 MD| Step number                                                               7
 MD| Time [fs]                                                          3.500000
 MD| Conserved quantity [hartree]                             0.120072153311E+06
 MD| ---------------------------------------------------------------------------
 MD|                                          Instantaneous             Averages
 MD| CPU time per MD step [s]                      0.147023             0.196117
 MD| Energy drift per atom [K]           0.156333226146E+02   0.122720187329E+02
 MD| Potential energy [hartree]          0.120053266218E+06   0.120058413924E+06
 MD| Kinetic energy [hartree]            0.184692457677E+02   0.133416097336E+02
 MD| Temperature [K]                             632.928491           457.207891
 MD| ***************************************************************************
 MD| Estimated peak process memory after this step [MiB]                     283

 ENERGY| Total FORCE_EVAL ( NNP ) energy [hartree]        120052.678568341172650

 MD| ***************************************************************************
 MD| Step number                                                               8
 MD| Time [fs]                                                          4.000000
 MD| Conserved quantity [hartree]                             0.120073361931E+06
 MD| ---------------------------------------------------------------------------
 MD|                                          Instantaneous             Averages
 MD| CPU time per MD step [s]                      0.137373             0.188774
 MD| Energy drift per atom [K]           0.777510848179E+02   0.204569019935E+02
 MD| Potential energy [hartree]          0.120052678568E+06   0.120057697004E+06
 MD| Kinetic energy [hartree]            0.201053162073E+02   0.141870730428E+02
 MD| Temperature [K]                             688.995512           486.181344
 MD| ***************************************************************************
 MD| Estimated peak process memory after this step [MiB]                     283

 ENERGY| Total FORCE_EVAL ( NNP ) energy [hartree]        120051.723251432340476

 MD| ***************************************************************************
 MD| Step number                                                               9
 MD| Time [fs]                                                          4.500000
 MD| Conserved quantity [hartree]                             0.120073407869E+06
 MD| ---------------------------------------------------------------------------
 MD|                                          Instantaneous             Averages
 MD| CPU time per MD step [s]                      0.146467             0.184073
 MD| Energy drift per atom [K]           0.801121333992E+02   0.270852610386E+02
 MD| Potential energy [hartree]          0.120051723251E+06   0.120057033254E+06
 MD| Kinetic energy [hartree]            0.209752771399E+02   0.149413179425E+02
 MD| Temperature [K]                             718.808482           512.028804
 MD| ***************************************************************************
 MD| Estimated peak process memory after this step [MiB]                     283

 ENERGY| Total FORCE_EVAL ( NNP ) energy [hartree]        120051.592837365766172

 MD| ***************************************************************************
 MD| Step number                                                              10
 MD| Time [fs]                                                          5.000000
 MD| Conserved quantity [hartree]                             0.120074227137E+06
 MD| ---------------------------------------------------------------------------
 MD|                                          Instantaneous             Averages
 MD| CPU time per MD step [s]                      0.136661             0.179332
 MD| Energy drift per atom [K]           0.122218874509E+03   0.365986223856E+02
 MD| Potential energy [hartree]          0.120051592837E+06   0.120056489212E+06
 MD| Kinetic energy [hartree]            0.217073879486E+02   0.156179249431E+02
 MD| Temperature [K]                             743.897421           535.215666
 MD| ***************************************************************************
 MD| Estimated peak process memory after this step [MiB]                     283

 ENERGY| Total FORCE_EVAL ( NNP ) energy [hartree]        120051.910918701963965

 MD| ***************************************************************************
 MD| Step number                                                              11
 MD| Time [fs]                                                          5.500000
 MD| Conserved quantity [hartree]                             0.120076031421E+06
 MD| ---------------------------------------------------------------------------
 MD|                                          Instantaneous             Averages
 MD| CPU time per MD step [s]                      0.221961             0.183207
 MD| Energy drift per atom [K]           0.214951180122E+03   0.528124912707E+02
 MD| Potential energy [hartree]          0.120051910919E+06   0.120056073004E+06
 MD| Kinetic energy [hartree]            0.229564420467E+02   0.162850628616E+02
 MD| Temperature [K]                             786.701655           558.078028
 MD| ***************************************************************************
 MD| Estimated peak process memory after this step [MiB]                     283

 ENERGY| Total FORCE_EVAL ( NNP ) energy [hartree]        120056.749881655196077

 MD| ***************************************************************************
 MD| Step number                                                              12
 MD| Time [fs]                                                          6.000000
 MD| Conserved quantity [hartree]                             0.120082869088E+06
 MD| ---------------------------------------------------------------------------
 MD|                                          Instantaneous             Averages
 MD| CPU time per MD step [s]                      0.182086             0.183114
 MD| Energy drift per atom [K]           0.566377277097E+03   0.956095567562E+02
 MD| Potential energy [hartree]          0.120056749882E+06   0.120056129410E+06
 MD| Kinetic energy [hartree]            0.247175108720E+02   0.169877668625E+02
 MD| Temperature [K]                             847.052286           582.159216
 MD| ***************************************************************************
 MD| Estimated peak process memory after this step [MiB]                     283

 ENERGY| Total FORCE_EVAL ( NNP ) energy [hartree]        120050.649256810109364

 MD| ***************************************************************************
 MD| Step number                                                              13
 MD| Time [fs]                                                          6.500000
 MD| Conserved quantity [hartree]                             0.120083233569E+06
 MD| ---------------------------------------------------------------------------
 MD|                                          Instantaneous             Averages
 MD| CPU time per MD step [s]                      0.194985             0.184027
 MD| Energy drift per atom [K]           0.585110014969E+03   0.133263438157E+03
 MD| Potential energy [hartree]          0.120050649257E+06   0.120055707860E+06
 MD| Kinetic energy [hartree]            0.308762544049E+02   0.180561120580E+02
 MD| Temperature [K]                            1058.108238           618.770680
 MD| ***************************************************************************
 MD| Estimated peak process memory after this step [MiB]                     283

 ENERGY| Total FORCE_EVAL ( NNP ) energy [hartree]        120040.328657271282282

 MD| ***************************************************************************
 MD| Step number                                                              14
 MD| Time [fs]                                                          7.000000
 MD| Conserved quantity [hartree]                             0.120078523907E+06
 MD| ---------------------------------------------------------------------------
 MD|                                          Instantaneous             Averages
 MD| CPU time per MD step [s]                      0.163597             0.182568
 MD| Energy drift per atom [K]           0.343054033897E+03   0.148248480710E+03
 MD| Potential energy [hartree]          0.120040328657E+06   0.120054609345E+06
 MD| Kinetic energy [hartree]            0.360666525109E+02   0.193425792332E+02
 MD| Temperature [K]                            1235.979651           662.857035
 MD| ***************************************************************************
 MD| Estimated peak process memory after this step [MiB]                     283

 ENERGY| Total FORCE_EVAL ( NNP ) energy [hartree]        120039.314244871769915

 MD| ***************************************************************************
 MD| Step number                                                              15
 MD| Time [fs]                                                          7.500000
 MD| Conserved quantity [hartree]                             0.120084657322E+06
 MD| ---------------------------------------------------------------------------
 MD|                                          Instantaneous             Averages
 MD| CPU time per MD step [s]                      0.190719             0.183111
 MD| Energy drift per atom [K]           0.658284664653E+03   0.182250892973E+03
 MD| Potential energy [hartree]          0.120039314245E+06   0.120053589672E+06
 MD| Kinetic energy [hartree]            0.427504780425E+02   0.209031058205E+02
 MD| Temperature [K]                            1465.029806           716.335220
 MD| ***************************************************************************
 MD| Estimated peak process memory after this step [MiB]                     283

 ENERGY| Total FORCE_EVAL ( NNP ) energy [hartree]        120039.934245311771519

 MD| ***************************************************************************
 MD| Step number                                                              16
 MD| Time [fs]                                                          8.000000
 MD| Conserved quantity [hartree]                             0.120112188494E+06
 MD| ---------------------------------------------------------------------------
 MD|                                          Instantaneous             Averages
 MD| CPU time per MD step [s]                      0.258379             0.187815
 MD| Energy drift per atom [K]           0.207326613063E+04   0.300439345327E+03
 MD| Potential energy [hartree]          0.120039934245E+06   0.120052736208E+06
 MD| Kinetic energy [hartree]            0.687742767787E+02   0.238950540054E+02
 MD| Temperature [K]                            2356.847689           818.867249
 MD| ***************************************************************************
 MD| Estimated peak process memory after this step [MiB]                     283

 ENERGY| Total FORCE_EVAL ( NNP ) energy [hartree]        120044.531644362286897

 MD| ***************************************************************************
 MD| Step number                                                              17
 MD| Time [fs]                                                          8.500000
 MD| Conserved quantity [hartree]                             0.120153790312E+06
 MD| ---------------------------------------------------------------------------
 MD|                                          Instantaneous             Averages
 MD| CPU time per MD step [s]                      0.188572             0.187860
 MD| Energy drift per atom [K]           0.421141705649E+04   0.530496857748E+03
 MD| Potential energy [hartree]          0.120044531644E+06   0.120052253587E+06
 MD| Kinetic energy [hartree]            0.104490534390E+03   0.286359646162E+02
 MD| Temperature [K]                            3580.819546           981.335031
 MD| ***************************************************************************
 MD| Estimated peak process memory after this step [MiB]                     283

 ENERGY| Total FORCE_EVAL ( NNP ) energy [hartree]        120037.403999912290601

 MD| ***************************************************************************
 MD| Step number                                                              18
 MD| Time [fs]                                                          9.000000
 MD| Conserved quantity [hartree]                             0.120229769463E+06
 MD| ---------------------------------------------------------------------------
 MD|                                          Instantaneous             Averages
 MD| CPU time per MD step [s]                      0.175550             0.187176
 MD| Energy drift per atom [K]           0.811641212984E+04   0.951936595086E+03
 MD| Potential energy [hartree]          0.120037404000E+06   0.120051428610E+06
 MD| Kinetic energy [hartree]            0.185349860346E+03   0.373422921568E+02
 MD| Temperature [K]                            6351.813651          1279.694954
 MD| ***************************************************************************
 MD| Estimated peak process memory after this step [MiB]                     283

 ENERGY| Total FORCE_EVAL ( NNP ) energy [hartree]        120050.700794203250553

 MD| ***************************************************************************
 MD| Step number                                                              19
 MD| Time [fs]                                                          9.500000
 MD| Conserved quantity [hartree]                             0.120332772567E+06
 MD| ---------------------------------------------------------------------------
 MD|                                          Instantaneous             Averages
 MD| CPU time per MD step [s]                      0.249803             0.190472
 MD| Energy drift per atom [K]           0.134103198083E+05   0.160764097473E+04
 MD| Potential energy [hartree]          0.120050700794E+06   0.120051390303E+06
 MD| Kinetic energy [hartree]            0.271498760791E+03   0.496663168217E+02
 MD| Temperature [K]                            9304.077877          1702.030898
 MD| ***************************************************************************
 MD| Estimated peak process memory after this step [MiB]                     283

 ENERGY| Total FORCE_EVAL ( NNP ) energy [hartree]        120048.771020353291533

 MD| ***************************************************************************
 MD| Step number                                                              20
 MD| Time [fs]                                                         10.000000
 MD| Conserved quantity [hartree]                             0.120349550033E+06
 MD| ---------------------------------------------------------------------------
 MD|                                          Instantaneous             Averages
 MD| CPU time per MD step [s]                      0.202095             0.191053
 MD| Energy drift per atom [K]           0.142726079980E+05   0.224088932590E+04
 MD| Potential energy [hartree]          0.120048771020E+06   0.120051259339E+06
 MD| Kinetic energy [hartree]            0.285741887735E+03   0.614700953674E+02
 MD| Temperature [K]                            9792.180150          2106.538360
 MD| ***************************************************************************
 MD| Estimated peak process memory after this step [MiB]                     283

 ENERGY| Total FORCE_EVAL ( NNP ) energy [hartree]        120057.449504848060315

 MD| ***************************************************************************
 MD| Step number                                                              21
 MD| Time [fs]                                                         10.500000
 MD| Conserved quantity [hartree]                             0.120402743745E+06
 MD| ---------------------------------------------------------------------------
 MD|                                          Instantaneous             Averages
 MD| CPU time per MD step [s]                      0.256610             0.194175
 MD| Energy drift per atom [K]           0.170065314254E+05   0.294401514016E+04
 MD| Potential energy [hartree]          0.120057449505E+06   0.120051554109E+06
 MD| Kinetic energy [hartree]            0.325192344169E+03   0.740282976913E+02
 MD| Temperature [K]                           11144.120460          2536.899413
 MD| ***************************************************************************
 MD| Estimated peak process memory after this step [MiB]                     285

 ENERGY| Total FORCE_EVAL ( NNP ) energy [hartree]        120056.257369403290795

 MD| ***************************************************************************
 MD| Step number                                                              22
 MD| Time [fs]                                                         11.000000
 MD| Conserved quantity [hartree]                             0.120404656610E+06
 MD| ---------------------------------------------------------------------------
 MD|                                          Instantaneous             Averages
 MD| CPU time per MD step [s]                      0.180725             0.193564
 MD| Energy drift per atom [K]           0.171048442766E+05   0.358768919181E+04
 MD| Potential energy [hartree]          0.120056257369E+06   0.120051767894E+06
 MD| Kinetic energy [hartree]            0.323015944744E+03   0.853459180119E+02
 MD| Temperature [K]                           11069.536732          2924.746564
 MD| ***************************************************************************
 MD| Estimated peak process memory after this step [MiB]                     285

 ENERGY| Total FORCE_EVAL ( NNP ) energy [hartree]        120050.405455613232334

 MD| ***************************************************************************
 MD| Step number                                                              23
 MD| Time [fs]                                                         11.500000
 MD| Conserved quantity [hartree]                             0.120414289524E+06
 MD| ---------------------------------------------------------------------------
 MD|                                          Instantaneous             Averages
 MD| CPU time per MD step [s]                      0.205923             0.194101
 MD| Energy drift per atom [K]           0.175999338293E+05   0.419691721953E+04
 MD| Potential energy [hartree]          0.120050405456E+06   0.120051708657E+06
 MD| Kinetic energy [hartree]            0.333232476490E+03   0.961235944675E+02
 MD| Temperature [K]                           11419.650327          3294.090205
 MD| ***************************************************************************
 MD| Estimated peak process memory after this step [MiB]                     285

 ENERGY| Total FORCE_EVAL ( NNP ) energy [hartree]        120054.970792405496468

 MD| ***************************************************************************
 MD| Step number                                                              24
 MD| Time [fs]                                                         12.000000
 MD| Conserved quantity [hartree]                             0.120457712784E+06
 MD| ---------------------------------------------------------------------------
 MD|                                          Instantaneous             Averages
 MD| CPU time per MD step [s]                      0.166743             0.192961
 MD| Energy drift per atom [K]           0.198316989110E+05   0.484836645668E+04
 MD| Potential energy [hartree]          0.120054970792E+06   0.120051844579E+06
 MD| Kinetic energy [hartree]            0.366380695002E+03   0.107384306990E+03
 MD| Temperature [K]                           12555.617230          3679.987165
 MD| ***************************************************************************
 MD| Estimated peak process memory after this step [MiB]                     285

 ENERGY| Total FORCE_EVAL ( NNP ) energy [hartree]        120035.240157644337160

 MD| ***************************************************************************
 MD| Step number                                                              25
 MD| Time [fs]                                                         12.500000
 MD| Conserved quantity [hartree]                             0.120457458054E+06
 MD| ---------------------------------------------------------------------------
 MD|                                          Instantaneous             Averages
 MD| CPU time per MD step [s]                      0.166376             0.191898
 MD| Energy drift per atom [K]           0.198186068754E+05   0.544717607343E+04
 MD| Potential energy [hartree]          0.120035240158E+06   0.120051180403E+06
 MD| Kinetic energy [hartree]            0.379863303356E+03   0.118283466844E+03
 MD| Temperature [K]                           13017.657048          4053.493960
 MD| ***************************************************************************
 MD| Estimated peak process memory after this step [MiB]                     285

 ENERGY| Total FORCE_EVAL ( NNP ) energy [hartree]        120050.735223026393214

 MD| ***************************************************************************
 MD| Step number                                                              26
 MD| Time [fs]                                                         13.000000
 MD| Conserved quantity [hartree]                             0.120483034018E+06
 MD| ---------------------------------------------------------------------------
 MD|                                          Instantaneous             Averages
 MD| CPU time per MD step [s]                      0.170582             0.191078
 MD| Energy drift per atom [K]           0.211330992694E+05   0.605048081173E+04
 MD| Potential energy [hartree]          0.120050735223E+06   0.120051163280E+06
 MD| Kinetic energy [hartree]            0.383556334172E+03   0.128486269434E+03
 MD| Temperature [K]                           13144.214702          4403.137066
 MD| ***************************************************************************
 MD| Estimated peak process memory after this step [MiB]                     285

 ENERGY| Total FORCE_EVAL ( NNP ) energy [hartree]        120040.635018364409916

 MD| ***************************************************************************
 MD| Step number                                                              27
 MD| Time [fs]                                                         13.500000
 MD| Conserved quantity [hartree]                             0.120479246198E+06
 MD| ---------------------------------------------------------------------------
 MD|                                          Instantaneous             Averages
 MD| CPU time per MD step [s]                      0.184518             0.190835
 MD| Energy drift per atom [K]           0.209384219296E+05   0.660188603832E+04
 MD| Potential energy [hartree]          0.120040635018E+06   0.120050773345E+06
 MD| Kinetic energy [hartree]            0.383492924761E+03   0.137930960372E+03
 MD| Temperature [K]                           13142.041705          4726.800200
 MD| ***************************************************************************
 MD| Estimated peak process memory after this step [MiB]                     285

 ENERGY| Total FORCE_EVAL ( NNP ) energy [hartree]        120037.359749118928448

 MD| ***************************************************************************
 MD| Step number                                                              28
 MD| Time [fs]                                                         14.000000
 MD| Conserved quantity [hartree]                             0.120498650192E+06
 MD| ---------------------------------------------------------------------------
 MD|                                          Instantaneous             Averages
 MD| CPU time per MD step [s]                      0.195173             0.190990
 MD| Energy drift per atom [K]           0.219357020730E+05   0.714952232527E+04
 MD| Potential energy [hartree]          0.120037359749E+06   0.120050294288E+06
 MD| Kinetic energy [hartree]            0.399736331966E+03   0.147281152215E+03
 MD| Temperature [K]                           13698.692222          5047.224915
 MD| ***************************************************************************
 MD| Estimated peak process memory after this step [MiB]                     285

 ENERGY| Total FORCE_EVAL ( NNP ) energy [hartree]        120038.167136342264712

 MD| ***************************************************************************
 MD| Step number                                                              29
 MD| Time [fs]                                                         14.500000
 MD| Conserved quantity [hartree]                             0.120540173655E+06
 MD| ---------------------------------------------------------------------------
 MD|                                          Instantaneous             Averages
 MD| CPU time per MD step [s]                      0.144306             0.189380
 MD| Energy drift per atom [K]           0.240698259348E+05   0.773298107043E+04
 MD| Potential energy [hartree]          0.120038167136E+06   0.120049876110E+06
 MD| Kinetic energy [hartree]            0.433593553357E+03   0.157153993633E+03
 MD| Temperature [K]                           14858.956172          5385.560476
 MD| ***************************************************************************
 MD| Estimated peak process memory after this step [MiB]                     285

 ENERGY| Total FORCE_EVAL ( NNP ) energy [hartree]        120037.685614648915362

 MD| ***************************************************************************
 MD| Step number                                                              30
 MD| Time [fs]                                                         15.000000
 MD| Conserved quantity [hartree]                             0.120565736387E+06
 MD| ---------------------------------------------------------------------------
 MD|                                          Instantaneous             Averages
 MD| CPU time per MD step [s]                      0.149128             0.188038
 MD| Energy drift per atom [K]           0.253836382025E+05   0.832133630816E+04
 MD| Potential energy [hartree]          0.120037685615E+06   0.120049469760E+06
 MD| Kinetic energy [hartree]            0.452291477237E+03   0.166991909753E+03
 MD| Temperature [K]                           15499.721306          5722.699170
 MD| ***************************************************************************
 MD| Estimated peak process memory after this step [MiB]                     285

 ENERGY| Total FORCE_EVAL ( NNP ) energy [hartree]        120036.021018193481723

 MD| ***************************************************************************
 MD| Step number                                                              31
 MD| Time [fs]                                                         15.500000
 MD| Conserved quantity [hartree]                             0.120572928549E+06
 MD| ---------------------------------------------------------------------------
 MD|                                          Instantaneous             Averages
 MD| CPU time per MD step [s]                      0.203942             0.188551
 MD| Energy drift per atom [K]           0.257532837917E+05   0.888365719473E+04
 MD| Potential energy [hartree]          0.120036021018E+06   0.120049035930E+06
 MD| Kinetic energy [hartree]            0.453703017407E+03   0.176240655162E+03
 MD| Temperature [K]                           15548.093828          6039.647385
 MD| ***************************************************************************
 MD| Estimated peak process memory after this step [MiB]                     285

 ENERGY| Total FORCE_EVAL ( NNP ) energy [hartree]        120033.812888040018152

 MD| ***************************************************************************
 MD| Step number                                                              32
 MD| Time [fs]                                                         16.000000
 MD| Conserved quantity [hartree]                             0.120576531104E+06
 MD| ---------------------------------------------------------------------------
 MD|                                          Instantaneous             Averages
 MD| CPU time per MD step [s]                      0.202659             0.188992
 MD| Energy drift per atom [K]           0.259384393388E+05   0.941661913673E+04
 MD| Potential energy [hartree]          0.120033812888E+06   0.120048560210E+06
 MD| Kinetic energy [hartree]            0.452123139874E+03   0.184861982809E+03
 MD| Temperature [K]                           15493.952499          6335.094420
 MD| ***************************************************************************
 MD| Estimated peak process memory after this step [MiB]                     285

 ENERGY| Total FORCE_EVAL ( NNP ) energy [hartree]        120030.912462985419552

 MD| ***************************************************************************
 MD| Step number                                                              33
 MD| Time [fs]                                                         16.500000
 MD| Conserved quantity [hartree]                             0.120581752891E+06
 MD| ---------------------------------------------------------------------------
 MD|                                          Instantaneous             Averages
 MD| CPU time per MD step [s]                      0.146188             0.187695
 MD| Energy drift per atom [K]           0.262068162940E+05   0.992541298998E+04
 MD| Potential energy [hartree]          0.120030912463E+06   0.120048025430E+06
 MD| Kinetic energy [hartree]            0.452772087898E+03   0.192980470842E+03
 MD| Temperature [K]                           15516.191506          6613.309483
 MD| ***************************************************************************
 MD| Estimated peak process memory after this step [MiB]                     285

 ENERGY| Total FORCE_EVAL ( NNP ) energy [hartree]        120011.404939494052087

 MD| ***************************************************************************
 MD| Step number                                                              34
 MD| Time [fs]                                                         17.000000
 MD| Conserved quantity [hartree]                             0.120574134356E+06
 MD| ---------------------------------------------------------------------------
 MD|                                          Instantaneous             Averages
 MD| CPU time per MD step [s]                      0.147059             0.186500
 MD| Energy drift per atom [K]           0.258152569719E+05   0.103927613424E+05
 MD| Potential energy [hartree]          0.120011404939E+06   0.120046948356E+06
 MD| Kinetic energy [hartree]            0.457206356291E+03   0.200751820414E+03
 MD| Temperature [K]                           15668.150868          6879.628347
 MD| ***************************************************************************
 MD| Estimated peak process memory after this step [MiB]                     285

 ENERGY| Total FORCE_EVAL ( NNP ) energy [hartree]        120008.336969651049003

 MD| ***************************************************************************
 MD| Step number                                                              35
 MD| Time [fs]                                                         17.500000
 MD| Conserved quantity [hartree]                             0.120592939644E+06
 MD| ---------------------------------------------------------------------------
 MD|                                          Instantaneous             Averages
 MD| CPU time per MD step [s]                      0.132300             0.184951
 MD| Energy drift per atom [K]           0.267817663131E+05   0.108610186273E+05
 MD| Potential energy [hartree]          0.120008336970E+06   0.120045845174E+06
 MD| Kinetic energy [hartree]            0.471510690740E+03   0.208487788137E+03
 MD| Temperature [K]                           16158.350681          7144.734700
 MD| ***************************************************************************
 MD| Estimated peak process memory after this step [MiB]                     285

 ENERGY| Total FORCE_EVAL ( NNP ) energy [hartree]        120009.913774039348937

 MD| ***************************************************************************
 MD| Step number                                                              36
 MD| Time [fs]                                                         18.000000
 MD| Conserved quantity [hartree]                             0.120658006283E+06
 MD| ---------------------------------------------------------------------------
 MD|                                          Instantaneous             Averages
 MD| CPU time per MD step [s]                      0.157444             0.184187
 MD| Energy drift per atom [K]           0.301259061101E+05   0.113961543907E+05
 MD| Potential energy [hartree]          0.120009913774E+06   0.120044847079E+06
 MD| Kinetic energy [hartree]            0.526833357649E+03   0.217330720624E+03
 MD| Temperature [K]                           18054.220849          7447.775982
 MD| ***************************************************************************
 MD| Estimated peak process memory after this step [MiB]                     285

 ENERGY| Total FORCE_EVAL ( NNP ) energy [hartree]        120012.473264631247730

 MD| ***************************************************************************
 MD| Step number                                                              37
 MD| Time [fs]                                                         18.500000
 MD| Conserved quantity [hartree]                             0.120680281810E+06
 MD| ---------------------------------------------------------------------------
 MD|                                          Instantaneous             Averages
 MD| CPU time per MD step [s]                      0.134260             0.182838
 MD| Energy drift per atom [K]           0.312707704818E+05   0.119333061769E+05
 MD| Potential energy [hartree]          0.120012473265E+06   0.120043972111E+06
 MD| Kinetic energy [hartree]            0.537850196904E+03   0.225993409172E+03
 MD| Temperature [K]                           18431.760438          7744.640426
 MD| ***************************************************************************
 MD| Estimated peak process memory after this step [MiB]                     285

 ENERGY| Total FORCE_EVAL ( NNP ) energy [hartree]        120006.692159993224777

 MD| ***************************************************************************
 MD| Step number                                                              38
 MD| Time [fs]                                                         19.000000
 MD| Conserved quantity [hartree]                             0.120700927549E+06
 MD| ---------------------------------------------------------------------------
 MD|                                          Instantaneous             Averages
 MD| CPU time per MD step [s]                      0.141483             0.181750
 MD| Energy drift per atom [K]           0.323318709214E+05   0.124701105123E+05
 MD| Potential energy [hartree]          0.120006692160E+06   0.120042991060E+06
 MD| Kinetic energy [hartree]            0.555265722705E+03   0.234658470054E+03
 MD| Temperature [K]                           19028.578662          8041.586170
 MD| ***************************************************************************
 MD| Estimated peak process memory after this step [MiB]                     285

 ENERGY| Total FORCE_EVAL ( NNP ) energy [hartree]        120014.202005578132230

 MD| ***************************************************************************
 MD| Step number                                                              39
 MD| Time [fs]                                                         19.500000
 MD| Conserved quantity [hartree]                             0.120718182432E+06
 MD| ---------------------------------------------------------------------------
 MD|                                          Instantaneous             Averages
 MD| CPU time per MD step [s]                      0.360956             0.186345
 MD| Energy drift per atom [K]           0.332186962198E+05   0.130021255305E+05
 MD| Potential energy [hartree]          0.120014202006E+06   0.120042252879E+06
 MD| Kinetic energy [hartree]            0.555819610271E+03   0.242893371086E+03
 MD| Temperature [K]                           19047.560012          8323.790627
 MD| ***************************************************************************
 MD| Estimated peak process memory after this step [MiB]                     285

 ENERGY| Total FORCE_EVAL ( NNP ) energy [hartree]        120002.083039503981126

 MD| ***************************************************************************
 MD| Step number                                                              40
 MD| Time [fs]                                                         20.000000
 MD| Conserved quantity [hartree]                             0.120719859886E+06
 MD| ---------------------------------------------------------------------------
 MD|                                          Instantaneous             Averages
 MD| CPU time per MD step [s]                      0.140441             0.185197
 MD| Energy drift per atom [K]           0.333049099984E+05   0.135096951422E+05
 MD| Potential energy [hartree]          0.120002083040E+06   0.120041248633E+06
 MD| Kinetic energy [hartree]            0.560409559506E+03   0.250831275796E+03
 MD| Temperature [K]                           19204.854451          8595.817223
 MD| ***************************************************************************
 MD| Estimated peak process memory after this step [MiB]                     285

 ENERGY| Total FORCE_EVAL ( NNP ) energy [hartree]        119994.251636425746256

 MD| ***************************************************************************
 MD| Step number                                                              41
 MD| Time [fs]                                                         20.500000
 MD| Conserved quantity [hartree]                             0.120743713911E+06
 MD| ---------------------------------------------------------------------------
 MD|                                          Instantaneous             Averages
 MD| CPU time per MD step [s]                      0.221588             0.186085
 MD| Energy drift per atom [K]           0.345309022094E+05   0.140224075096E+05
 MD| Potential energy [hartree]          0.119994251636E+06   0.120040102365E+06
 MD| Kinetic energy [hartree]            0.582758927303E+03   0.258927072174E+03
 MD| Temperature [K]                           19970.752084          8873.254658
 MD| ***************************************************************************
 MD| Estimated peak process memory after this step [MiB]                     285

 ENERGY| Total FORCE_EVAL ( NNP ) energy [hartree]        119982.897000150711392

 MD| ***************************************************************************
 MD| Step number                                                              42
 MD| Time [fs]                                                         21.000000
 MD| Conserved quantity [hartree]                             0.120759553807E+06
 MD| ---------------------------------------------------------------------------
 MD|                                          Instantaneous             Averages
 MD| CPU time per MD step [s]                      0.142911             0.185057
 MD| Energy drift per atom [K]           0.353450033903E+05   0.145300883639E+05
 MD| Potential energy [hartree]          0.119982897000E+06   0.120038740333E+06
 MD| Kinetic energy [hartree]            0.600188841998E+03   0.267052352408E+03
 MD| Temperature [K]                           20568.063406          9151.702486
 MD| ***************************************************************************
 MD| Estimated peak process memory after this step [MiB]                     285

 ENERGY| Total FORCE_EVAL ( NNP ) energy [hartree]        119957.254713093760074

 MD| ***************************************************************************
 MD| Step number                                                              43
 MD| Time [fs]                                                         21.500000
 MD| Conserved quantity [hartree]                             0.120784120994E+06
 MD| ---------------------------------------------------------------------------
 MD|                                          Instantaneous             Averages
 MD| CPU time per MD step [s]                      0.147129             0.184175
 MD| Energy drift per atom [K]           0.366076490341E+05   0.150435200074E+05
 MD| Potential energy [hartree]          0.119957254713E+06   0.120036845318E+06
 MD| Kinetic energy [hartree]            0.640284603262E+03   0.275732172196E+03
 MD| Temperature [K]                           21942.117874          9449.154006
 MD| ***************************************************************************
 MD| Estimated peak process memory after this step [MiB]                     285

 ENERGY| Total FORCE_EVAL ( NNP ) energy [hartree]        119968.099859502006439

 MD| ***************************************************************************
 MD| Step number                                                              44
 MD| Time [fs]                                                         22.000000
 MD| Conserved quantity [hartree]                             0.120877828633E+06
 MD| ---------------------------------------------------------------------------
 MD|                                          Instantaneous             Averages
 MD| CPU time per MD step [s]                      0.147868             0.183349
 MD| Energy drift per atom [K]           0.414238105851E+05   0.156430720660E+05
 MD| Potential energy [hartree]          0.119968099860E+06   0.120035282921E+06
 MD| Kinetic energy [hartree]            0.712047647676E+03   0.285648433002E+03
 MD| Temperature [K]                           24401.388598          9788.977520
 MD| ***************************************************************************
 MD| Estimated peak process memory after this step [MiB]                     285

 ENERGY| Total FORCE_EVAL ( NNP ) energy [hartree]        119947.622448335387162

 MD| ***************************************************************************
 MD| Step number                                                              45
 MD| Time [fs]                                                         22.500000
 MD| Conserved quantity [hartree]                             0.120972455442E+06
 MD| ---------------------------------------------------------------------------
 MD|                                          Instantaneous             Averages
 MD| CPU time per MD step [s]                      0.150041             0.182609
 MD| Energy drift per atom [K]           0.462872134627E+05   0.163240529859E+05
 MD| Potential energy [hartree]          0.119947622448E+06   0.120033334911E+06
 MD| Kinetic energy [hartree]            0.814441737859E+03   0.297399395332E+03
 MD| Temperature [K]                           27910.364427         10191.675007
 MD| ***************************************************************************
 MD| Estimated peak process memory after this step [MiB]                     285

 ENERGY| Total FORCE_EVAL ( NNP ) energy [hartree]        119949.782039773563156

 MD| ***************************************************************************
 MD| Step number                                                              46
 MD| Time [fs]                                                         23.000000
 MD| Conserved quantity [hartree]                             0.121077632901E+06
 MD| ---------------------------------------------------------------------------
 MD|                                          Instantaneous             Averages
 MD| CPU time per MD step [s]                      0.143042             0.181749
 MD| Energy drift per atom [K]           0.516928734732E+05   0.170929403878E+05
 MD| Potential energy [hartree]          0.119949782040E+06   0.120031518544E+06
 MD| Kinetic energy [hartree]            0.903256610158E+03   0.310570204350E+03
 MD| Temperature [K]                           30953.989694         10643.029674
 MD| ***************************************************************************
 MD| Estimated peak process memory after this step [MiB]                     285

 ENERGY| Total FORCE_EVAL ( NNP ) energy [hartree]        119950.829799360100878

 MD| ***************************************************************************
 MD| Step number                                                              47
 MD| Time [fs]                                                         23.500000
 MD| Conserved quantity [hartree]                             0.121131196473E+06
 MD| ---------------------------------------------------------------------------
 MD|                                          Instantaneous             Averages
 MD| CPU time per MD step [s]                      0.137649             0.180811
 MD| Energy drift per atom [K]           0.544458061411E+05   0.178876822124E+05
 MD| Potential energy [hartree]          0.119950829799E+06   0.120029801762E+06
 MD| Kinetic energy [hartree]            0.940627872663E+03   0.323975686655E+03
 MD| Temperature [K]                           32234.677443         11102.426435
 MD| ***************************************************************************
 MD| Estimated peak process memory after this step [MiB]                     285

 ENERGY| Total FORCE_EVAL ( NNP ) energy [hartree]        119919.877345017041080

 MD| ***************************************************************************
 MD| Step number                                                              48
 MD| Time [fs]                                                         24.000000
 MD| Conserved quantity [hartree]                             0.121167645314E+06
 MD| ---------------------------------------------------------------------------
 MD|                                          Instantaneous             Averages
 MD| CPU time per MD step [s]                      0.135373             0.179864
 MD| Energy drift per atom [K]           0.563191166613E+05   0.186883370967E+05
 MD| Potential energy [hartree]          0.119919877345E+06   0.120027511670E+06
 MD| Kinetic energy [hartree]            0.992311007327E+03   0.337899339169E+03
 MD| Temperature [K]                           34005.823316         11579.580536
 MD| ***************************************************************************
 MD| Estimated peak process memory after this step [MiB]                     285

 ENERGY| Total FORCE_EVAL ( NNP ) energy [hartree]        119914.249867188031203

 MD| ***************************************************************************
 MD| Step number                                                              49
 MD| Time [fs]                                                         24.500000
 MD| Conserved quantity [hartree]                             0.121233231638E+06
 MD| ---------------------------------------------------------------------------
 MD|                                          Instantaneous             Averages
 MD| CPU time per MD step [s]                      0.142399             0.179100
 MD| Energy drift per atom [K]           0.596899659980E+05   0.195251050335E+05
 MD| Potential energy [hartree]          0.119914249867E+06   0.120025200205E+06
 MD| Kinetic energy [hartree]            0.104711121143E+04   0.352373050847E+03
 MD| Temperature [K]                           35883.789039         12075.584792
 MD| ***************************************************************************
 MD| Estimated peak process memory after this step [MiB]                     285

 ENERGY| Total FORCE_EVAL ( NNP ) energy [hartree]        119879.053239026019583

 MD| ***************************************************************************
 MD| Step number                                                              50
 MD| Time [fs]                                                         25.000000
 MD| Conserved quantity [hartree]                             0.121297004878E+06
 MD| ---------------------------------------------------------------------------
 MD|                                          Instantaneous             Averages
 MD| CPU time per MD step [s]                      0.149326             0.178504
 MD| Energy drift per atom [K]           0.629676307979E+05   0.203939555488E+05
 MD| Potential energy [hartree]          0.119879053239E+06   0.120022277266E+06
 MD| Kinetic energy [hartree]            0.112831023292E+04   0.367891794489E+03
 MD| Temperature [K]                           38666.424280         12607.401581
 MD| ***************************************************************************
 MD| Estimated peak process memory after this step [MiB]                     285

 ENERGY| Total FORCE_EVAL ( NNP ) energy [hartree]        119851.237959137346479

 MD| ***************************************************************************
 MD| Step number                                                              51
 MD| Time [fs]                                                         25.500000
 MD| Conserved quantity [hartree]                             0.121457682498E+06
 MD| ---------------------------------------------------------------------------
 MD|                                          Instantaneous             Averages
 MD| CPU time per MD step [s]                      0.185090             0.178633
 MD| Energy drift per atom [K]           0.712257556158E+05   0.213906575109E+05
 MD| Potential energy [hartree]          0.119851237959E+06   0.120018923554E+06
 MD| Kinetic energy [hartree]            0.129700241978E+04   0.386109649887E+03
 MD| Temperature [K]                           44447.390790         13231.715095
 MD| ***************************************************************************
 MD| Estimated peak process memory after this step [MiB]                     285

 ENERGY| Total FORCE_EVAL ( NNP ) energy [hartree]        119842.457747560401913

 MD| ***************************************************************************
 MD| Step number                                                              52
 MD| Time [fs]                                                         26.000000
 MD| Conserved quantity [hartree]                             0.121563739784E+06
 MD| ---------------------------------------------------------------------------
 MD|                                          Instantaneous             Averages
 MD| CPU time per MD step [s]                      0.147256             0.178030
 MD| Energy drift per atom [K]           0.766766348811E+05   0.224538493834E+05
 MD| Potential energy [hartree]          0.119842457748E+06   0.120015529980E+06
 MD| Kinetic energy [hartree]            0.138984869460E+04   0.405412323824E+03
 MD| Temperature [K]                           47629.169480         13893.204603
 MD| ***************************************************************************
 MD| Estimated peak process memory after this step [MiB]                     285

 ENERGY| Total FORCE_EVAL ( NNP ) energy [hartree]        119799.677917635388440

 MD| ***************************************************************************
 MD| Step number                                                              53
 MD| Time [fs]                                                         26.500000
 MD| Conserved quantity [hartree]                             0.121650986976E+06
 MD| ---------------------------------------------------------------------------
 MD|                                          Instantaneous             Averages
 MD| CPU time per MD step [s]                      0.137971             0.177274
 MD| Energy drift per atom [K]           0.811607577699E+05   0.235615269001E+05
 MD| Potential energy [hartree]          0.119799677918E+06   0.120011457300E+06
 MD| Kinetic energy [hartree]            0.149587374536E+04   0.425987067626E+03
 MD| Temperature [K]                           51262.575859         14598.287079
 MD| ***************************************************************************
 MD| Estimated peak process memory after this step [MiB]                     285

 ENERGY| Total FORCE_EVAL ( NNP ) energy [hartree]        119789.637497633375460

 MD| ***************************************************************************
 MD| Step number                                                              54
 MD| Time [fs]                                                         27.000000
 MD| Conserved quantity [hartree]                             0.121732222072E+06
 MD| ---------------------------------------------------------------------------
 MD|                                          Instantaneous             Averages
 MD| CPU time per MD step [s]                      0.136981             0.176528
 MD| Energy drift per atom [K]           0.853358853621E+05   0.247054965013E+05
 MD| Potential energy [hartree]          0.119789637498E+06   0.120007349526E+06
 MD| Kinetic energy [hartree]            0.156172203563E+04   0.447019196663E+03
 MD| Temperature [K]                           53519.151980         15319.043837
 MD| ***************************************************************************
 MD| Estimated peak process memory after this step [MiB]                     285

 ENERGY| Total FORCE_EVAL ( NNP ) energy [hartree]        119751.144635670381831

 MD| ***************************************************************************
 MD| Step number                                                              55
 MD| Time [fs]                                                         27.500000
 MD| Conserved quantity [hartree]                             0.121859217198E+06
 MD| ---------------------------------------------------------------------------
 MD|                                          Instantaneous             Averages
 MD| CPU time per MD step [s]                      0.143681             0.175931
 MD| Energy drift per atom [K]           0.918628777690E+05   0.259265397970E+05
 MD| Potential energy [hartree]          0.119751144636E+06   0.120002691255E+06
 MD| Kinetic energy [hartree]            0.170034452023E+04   0.469806929819E+03
 MD| Temperature [K]                           58269.650246         16099.963953
 MD| ***************************************************************************
 MD| Estimated peak process memory after this step [MiB]                     285

 ENERGY| Total FORCE_EVAL ( NNP ) energy [hartree]        119737.935770848460379

 MD| ***************************************************************************
 MD| Step number                                                              56
 MD| Time [fs]                                                         28.000000
 MD| Conserved quantity [hartree]                             0.121971755528E+06
 MD| ---------------------------------------------------------------------------
 MD|                                          Instantaneous             Averages
 MD| CPU time per MD step [s]                      0.157981             0.175610
 MD| Energy drift per atom [K]           0.976468542597E+05   0.272072596982E+05
 MD| Potential energy [hartree]          0.119737935771E+06   0.119997963479E+06
 MD| Kinetic energy [hartree]            0.179688776572E+04   0.493504801889E+03
 MD| Temperature [K]                           61578.121606         16912.073911
 MD| ***************************************************************************
 MD| Estimated peak process memory after this step [MiB]                     285

 ENERGY| Total FORCE_EVAL ( NNP ) energy [hartree]        119698.297219643805875

 MD| ***************************************************************************
 MD| Step number                                                              57
 MD| Time [fs]                                                         28.500000
 MD| Conserved quantity [hartree]                             0.122036954070E+06
 MD| ---------------------------------------------------------------------------
 MD|                                          Instantaneous             Averages
 MD| CPU time per MD step [s]                      0.136644             0.174927
 MD| Energy drift per atom [K]           0.100997773308E+06   0.285018301124E+05
 MD| Potential energy [hartree]          0.119698297220E+06   0.119992706176E+06
 MD| Kinetic energy [hartree]            0.187129355122E+04   0.517676534333E+03
 MD| Temperature [K]                           64127.957269         17740.422742
 MD| ***************************************************************************
 MD| Estimated peak process memory after this step [MiB]                     285

 ENERGY| Total FORCE_EVAL ( NNP ) energy [hartree]        119663.677869247781928

 MD| ***************************************************************************
 MD| Step number                                                              58
 MD| Time [fs]                                                         29.000000
 MD| Conserved quantity [hartree]                             0.122259365580E+06
 MD| ---------------------------------------------------------------------------
 MD|                                          Instantaneous             Averages
 MD| CPU time per MD step [s]                      0.353855             0.178012
 MD| Energy drift per atom [K]           0.112428749228E+06   0.299488459592E+05
 MD| Potential energy [hartree]          0.119663677869E+06   0.119987033274E+06
 MD| Kinetic energy [hartree]            0.209530563482E+04   0.544877036066E+03
 MD| Temperature [K]                           71804.699016         18672.565436
 MD| ***************************************************************************
 MD| Estimated peak process memory after this step [MiB]                     285

 ENERGY| Total FORCE_EVAL ( NNP ) energy [hartree]        119644.131403264545952

 MD| ***************************************************************************
 MD| Step number                                                              59
 MD| Time [fs]                                                         29.500000
 MD| Conserved quantity [hartree]                             0.122609892719E+06
 MD| ---------------------------------------------------------------------------
 MD|                                          Instantaneous             Averages
 MD| CPU time per MD step [s]                      0.140581             0.177377
 MD| Energy drift per atom [K]           0.130444306513E+06   0.316521588499E+05
 MD| Potential energy [hartree]          0.119644131403E+06   0.119981221378E+06
 MD| Kinetic energy [hartree]            0.242780813962E+04   0.576791122567E+03
[...]
 MD| Time [fs]                                                         45.000000
 MD| Conserved quantity [hartree]                             0.135182401799E+06
 MD| ---------------------------------------------------------------------------
 MD|                                          Instantaneous             Averages
 MD| CPU time per MD step [s]                      0.139458             0.166924
 MD| Energy drift per atom [K]           0.776616120955E+06   0.148805420777E+06
 MD| Potential energy [hartree]          0.115778590364E+06   0.119434199653E+06
 MD| Kinetic energy [hartree]            0.153180497693E+05   0.281613807517E+04
 MD| Temperature [K]                          524939.147264         96507.136484
 MD| ***************************************************************************
 MD| Estimated peak process memory after this step [MiB]                     285

 ENERGY| Total FORCE_EVAL ( NNP ) energy [hartree]        115425.758452233130811

 MD| ***************************************************************************
 MD| Step number                                                              91
 MD| Time [fs]                                                         45.500000
 MD| Conserved quantity [hartree]                             0.135937790279E+06
 MD| ---------------------------------------------------------------------------
 MD|                                          Instantaneous             Averages
 MD| CPU time per MD step [s]                      0.167621             0.166932
 MD| Energy drift per atom [K]           0.815439775153E+06   0.156131073023E+06
 MD| Potential energy [hartree]          0.115425758452E+06   0.119390150848E+06
 MD| Kinetic energy [hartree]            0.161642194835E+05   0.296282028845E+04
 MD| Temperature [K]                          553936.807860        101533.836170
 MD| ***************************************************************************
 MD| Estimated peak process memory after this step [MiB]                     285

 ENERGY| Total FORCE_EVAL ( NNP ) energy [hartree]        115215.911057086297660

 MD| ***************************************************************************
 MD| Step number                                                              92
 MD| Time [fs]                                                         46.000000
 MD| Conserved quantity [hartree]                             0.136972976200E+06
 MD| ---------------------------------------------------------------------------
 MD|                                          Instantaneous             Averages
 MD| CPU time per MD step [s]                      0.189304             0.167175
 MD| Energy drift per atom [K]           0.868643790403E+06   0.163875776473E+06
 MD| Potential energy [hartree]          0.115215911057E+06   0.119344778677E+06
 MD| Kinetic energy [hartree]            0.171319261264E+05   0.311683230843E+04
 MD| Temperature [K]                          587099.456340        106811.723345
 MD| ***************************************************************************
 MD| Estimated peak process memory after this step [MiB]                     285

 ENERGY| Total FORCE_EVAL ( NNP ) energy [hartree]        114799.099874278166681

 MD| ***************************************************************************
 MD| Step number                                                              93
 MD| Time [fs]                                                         46.500000
 MD| Conserved quantity [hartree]                             0.138126220337E+06
 MD| ---------------------------------------------------------------------------
 MD|                                          Instantaneous             Averages
 MD| CPU time per MD step [s]                      0.143242             0.166918
 MD| Energy drift per atom [K]           0.927915480092E+06   0.172091257157E+06
 MD| Potential energy [hartree]          0.114799099874E+06   0.119295900410E+06
 MD| Kinetic energy [hartree]            0.184064084717E+05   0.328123635319E+04
 MD| Temperature [K]                          630775.099497        112445.738143
 MD| ***************************************************************************
 MD| Estimated peak process memory after this step [MiB]                     285

 ENERGY| Total FORCE_EVAL ( NNP ) energy [hartree]        114505.825717112995335

 MD| ***************************************************************************
 MD| Step number                                                              94
 MD| Time [fs]                                                         47.000000
 MD| Conserved quantity [hartree]                             0.139523222521E+06
 MD| ---------------------------------------------------------------------------
 MD|                                          Instantaneous             Averages
 MD| CPU time per MD step [s]                      0.141595             0.166648
 MD| Energy drift per atom [K]           0.999715264054E+06   0.180895767869E+06
 MD| Potential energy [hartree]          0.114505825717E+06   0.119244942169E+06
 MD| Kinetic energy [hartree]            0.197794548933E+05   0.345674931639E+04
 MD| Temperature [K]                          677828.466509        118460.448019
 MD| ***************************************************************************
 MD| Estimated peak process memory after this step [MiB]                     285

 ENERGY| Total FORCE_EVAL ( NNP ) energy [hartree]        114066.103170805159607

 MD| ***************************************************************************
 MD| Step number                                                              95
 MD| Time [fs]                                                         47.500000
 MD| Conserved quantity [hartree]                             0.141189690330E+06
 MD| ---------------------------------------------------------------------------
 MD|                                          Instantaneous             Averages
 MD| CPU time per MD step [s]                      0.142232             0.166391
 MD| Energy drift per atom [K]           0.108536439910E+07   0.190416490303E+06
 MD| Potential energy [hartree]          0.114066103171E+06   0.119190428074E+06
 MD| Kinetic energy [hartree]            0.215412192071E+05   0.364711215734E+04
 MD| Temperature [K]                          738202.931306        124984.053106
 MD| ***************************************************************************
 MD| Estimated peak process memory after this step [MiB]                     285

 ENERGY| Total FORCE_EVAL ( NNP ) energy [hartree]        113627.645497435529251

 MD| ***************************************************************************
 MD| Step number                                                              96
 MD| Time [fs]                                                         48.000000
 MD| Conserved quantity [hartree]                             0.142898025616E+06
 MD| ---------------------------------------------------------------------------
 MD|                                          Instantaneous             Averages
 MD| CPU time per MD step [s]                      0.141882             0.166136
 MD| Energy drift per atom [K]           0.117316533878E+07   0.200653457475E+06
 MD| Potential energy [hartree]          0.113627645497E+06   0.119132482422E+06
 MD| Kinetic energy [hartree]            0.233140739597E+05   0.385197634278E+04
 MD| Temperature [K]                          798957.457900        132004.609406
 MD| ***************************************************************************
 MD| Estimated peak process memory after this step [MiB]                     285

 ENERGY| Total FORCE_EVAL ( NNP ) energy [hartree]        113094.720882142850314

 MD| ***************************************************************************
 MD| Step number                                                              97
 MD| Time [fs]                                                         48.500000
 MD| Conserved quantity [hartree]                             0.144676353462E+06
 MD| ---------------------------------------------------------------------------
 MD|                                          Instantaneous             Averages
 MD| CPU time per MD step [s]                      0.143631             0.165904
 MD| Energy drift per atom [K]           0.126456358902E+07   0.211621603161E+06
 MD| Potential energy [hartree]          0.113094720882E+06   0.119070237458E+06
 MD| Kinetic energy [hartree]            0.252213576266E+05   0.407227924261E+04
 MD| Temperature [K]                          864318.771953        139554.239948
 MD| ***************************************************************************
 MD| Estimated peak process memory after this step [MiB]                     285

 ENERGY| Total FORCE_EVAL ( NNP ) energy [hartree]        112376.834354395075934

 MD| ***************************************************************************
 MD| Step number                                                              98
 MD| Time [fs]                                                         49.000000
 MD| Conserved quantity [hartree]                             0.146386207192E+06
 MD| ---------------------------------------------------------------------------
 MD|                                          Instantaneous             Averages
 MD| CPU time per MD step [s]                      0.145329             0.165694
 MD| Energy drift per atom [K]           0.135244257004E+07   0.223262633435E+06
 MD| Potential energy [hartree]          0.112376834354E+06   0.119001937426E+06
 MD| Kinetic energy [hartree]            0.272114616569E+05   0.430839334888E+04
 MD| Temperature [K]                          932518.283536        147645.709780
 MD| ***************************************************************************
 MD| Estimated peak process memory after this step [MiB]                     285

 ENERGY| Total FORCE_EVAL ( NNP ) energy [hartree]        111800.452156012281193

 MD| ***************************************************************************
 MD| Step number                                                              99
 MD| Time [fs]                                                         49.500000
 MD| Conserved quantity [hartree]                             0.148301358436E+06
 MD| ---------------------------------------------------------------------------
 MD|                                          Instantaneous             Averages
 MD| CPU time per MD step [s]                      0.153274             0.165569
 MD| Energy drift per atom [K]           0.145087294272E+07   0.235662737569E+06
 MD| Potential energy [hartree]          0.111800452156E+06   0.118929195151E+06
 MD| Kinetic energy [hartree]            0.292337294309E+05   0.456016442042E+04
 MD| Temperature [K]                         1001820.024738        156273.733164
 MD| ***************************************************************************
 MD| Estimated peak process memory after this step [MiB]                     285

 ENERGY| Total FORCE_EVAL ( NNP ) energy [hartree]        111508.474790791544365

 MD| ***************************************************************************
 MD| Step number                                                             100
 MD| Time [fs]                                                         50.000000
 MD| Conserved quantity [hartree]                             0.149957260652E+06
 MD| ---------------------------------------------------------------------------
 MD|                                          Instantaneous             Averages
 MD| CPU time per MD step [s]                      0.164874             0.165562
 MD| Energy drift per atom [K]           0.153597905265E+07   0.248665900720E+06
 MD| Potential energy [hartree]          0.111508474791E+06   0.118854987947E+06
 MD| Kinetic energy [hartree]            0.306832074012E+05   0.482139485023E+04
 MD| Temperature [K]                         1051492.648937        165225.922321
 MD| ***************************************************************************
 MD| Estimated peak process memory after this step [MiB]                     285

 -------------------------------------------------------------------------------
 -                                                                             -
 -                                DBCSR STATISTICS                             -
 -                                                                             -
 -------------------------------------------------------------------------------
 COUNTER                                    TOTAL       BLAS       SMM       ACC
 flops inhomo. stacks                           0       0.0%      0.0%      0.0%
 flops total                         0.000000E+00       0.0%      0.0%      0.0%
 flops max/rank                      0.000000E+00       0.0%      0.0%      0.0%
 matmuls inhomo. stacks                         0       0.0%      0.0%      0.0%
 matmuls total                                  0       0.0%      0.0%      0.0%
 number of processed stacks                     0       0.0%      0.0%      0.0%
 average stack size                                     0.0       0.0       0.0
 marketing flops                     0.000000E+00
 -------------------------------------------------------------------------------
 -                                                                             -
 -                      DBCSR MESSAGE PASSING PERFORMANCE                      -
 -                                                                             -
 -------------------------------------------------------------------------------
 ROUTINE             CALLS      AVE VOLUME [Bytes]
 MP_Bcast                1                     12.
 MP_Allreduce           19                     21.
 -------------------------------------------------------------------------------

 MEMORY| Estimated peak process memory [MiB]                                 285

 -------------------------------------------------------------------------------
 -                                                                             -
 -                         MESSAGE PASSING PERFORMANCE                         -
 -                                                                             -
 -------------------------------------------------------------------------------

 ROUTINE             CALLS      AVE VOLUME [Bytes]
 MP_Bcast              282                 181918.
 MP_Allreduce         1444                  34394.
 -------------------------------------------------------------------------------


 -------------------------------------------------------------------------------
 -                                                                             -
 -                           R E F E R E N C E S                               -
 -                                                                             -
 -------------------------------------------------------------------------------
 
 CP2K version 2026.1 (Development Version), the CP2K developers group (2026).
 CP2K is freely available from https://www.cp2k.org/ .
 
 C. Schran, J. Behler, D. Marx.
 J. Chem. Theory Comput. 16, 88-99 (2020).
 Automated Fitting of Neural Network Potentials at Coupled Cluster Accuracy: 
 Protonated Water Clusters as Testing Ground.
 https://doi.org/10.1021/acs.jctc.9b00805

 C. Schran, K. Brezina, O. Marsalek.
 J. Chem. Phys. 153, 104105 (2020).
 Committee neural network potentials control generalization errors and enable 
 active learning.
 https://doi.org/10.1063/5.0016004

 O. Schuett, P. Messmer, J. Hutter, J. VandeVondele.
 Electronic Structure Calculations on Graphics Processing Units, 173-190 (2016).
 GPU-Accelerated Sparse Matrix-Matrix Multiplication for Linear Scaling Density 
 Functional Theory.
 https://doi.org/10.1002/9781118670712.ch8

 A. Heinecke, G. Henry, M. Hutchinson, H. Pabst.
 Proceedings of Intl. Supercomputing Conference, 981-991 (2016).
 LIBXSMM: Accelerating Small Matrix Multiplications by Runtime Code Generation.
 https://doi.org/10.1109/SC.2016.83

 J. Hutter, M. Iannuzzi, F. Schiffmann, J. VandeVondele.
 WIREs Comput Mol Sci. 4, 15-25 (2014).
 CP2K: atomistic simulations of condensed matter systems.
 https://doi.org/10.1002/wcms.1159

 U. Borstnik, J. VandeVondele, V. Weber, J. Hutter.
 Parallel Comput. 40, 47-58 (2014).
 Sparse matrix multiplication: The distributed block-compressed sparse row 
 library.
 https://doi.org/10.1016/j.parco.2014.03.012

 J. Behler.
 J. Chem. Phys. 134, 074106 (2011).
 Atom-centered symmetry functions for constructing high-dimensional neural 
 network potentials.
 https://doi.org/10.1063/1.3553717

 G. Bussi, D. Donadio, M. Parrinello.
 J. Chem. Phys. 126, 014101 (2007).
 Canonical sampling through velocity rescaling.
 https://doi.org/10.1063/1.2408420

 J. Behler, M. Parrinello.
 Phys. Rev. Lett. 98, 146401 (2007).
 Generalized neural-network representation of high-dimensional potential-energy 
 surfaces.
 https://doi.org/10.1103/PhysRevLett.98.146401

 M. Frigo, S. G. Johnson.
 Proc. IEEE 93, 216-231 (2005).
 The design and implementation of FFTW3.
 https://doi.org/10.1109/JPROC.2004.840301


 -------------------------------------------------------------------------------
 -                                                                             -
 -                                T I M I N G                                  -
 -                                                                             -
 -------------------------------------------------------------------------------
 SUBROUTINE                       CALLS  ASD         SELF TIME        TOTAL TIME
                                MAXIMUM       AVERAGE  MAXIMUM  AVERAGE  MAXIMUM
 CP2K                                 1  1.0    0.014    0.017   16.967   16.967
 qs_mol_dyn_low                       1  2.0    0.007    0.010   16.647   16.740
 velocity_verlet                    100  3.0    0.014    0.021   16.046   16.187
 nnp_calc_energy_force              101  4.0    0.430    1.057   11.320   11.321
 nnp_calc_acsf                    19392  5.0    0.401    0.442    7.598   10.024
 nnp_acsf_angular                 19392  6.0    6.943    9.330    6.943    9.330
 csvr_particles                     200  4.0    0.306    0.360    4.614    4.755
 md_output                          100  3.0    0.000    0.000    0.405    4.667
 mp_sum_dv                          609  4.4    4.462    4.621    4.462    4.621
 md_write_output                    101  4.0    0.049    1.401    0.146    4.271
 mp_sum_dm                          301  5.0    2.630    4.257    2.630    4.257
 write_trajectory                   404  5.0    0.063    1.889    0.093    2.865
 write_particle_coordinates         101  6.0    0.031    0.976    0.031    0.976
 mp_sum_b                           101  5.0    0.606    0.627    0.606    0.627
 write_restart                      100  4.0    0.013    0.350    0.261    0.457
 -------------------------------------------------------------------------------

 The number of warnings for this run is : 0
 
 -------------------------------------------------------------------------------
  **** **** ******  **  PROGRAM ENDED AT                 2026-04-30 04:03:39.111
 ***** ** ***  *** **   PROGRAM RAN ON                             phy-cerberus4
 **    ****   ******    PROGRAM RAN BY                                     crm98
 ***** **    ** ** **   PROGRAM PROCESS ID                                870859
  **** **  *******  **  PROGRAM STOPPED IN /lsc/zeushome/crm98/cp2k_benchmarks/c
                                           p2k_optimized/NNP/NNP_size_scaling_fe
                                           ature-nnp-verlet-cells_30-04_04-02/N_
                                           2048
