 DBCSR| CPU Multiplication driver                                           XSMM (U)
 DBCSR| Multrec recursion limit                                              512 (U)
 DBCSR| Multiplication stack size                                           1000 (D)
 DBCSR| Maximum elements for images                                    UNLIMITED (U)
 DBCSR| Multiplicative factor virtual images                                   1 (U)
 DBCSR| Use multiplication densification                                       T (D)
 DBCSR| Multiplication size stacks                                             3 (U)
 DBCSR| Use memory pool for CPU allocation                                     F (U)
 DBCSR| Number of 3D layers                                               SINGLE (U)
 DBCSR| Use MPI memory allocation                                              F (U)
 DBCSR| Use RMA algorithm                                                      F (U)
 DBCSR| Use Communication thread                                               T (U)
 DBCSR| Communication thread load                                             87 (D)
 DBCSR| MPI: My process id                                                     0
 DBCSR| MPI: Number of processes                                              36
 DBCSR| OMP: Current number of threads                                         1
 DBCSR| OMP: Max number of threads                                             1
 DBCSR| Split modifier for TAS multiplication algorithm                  1.0E+00 (U)


  **** **** ******  **  PROGRAM STARTED AT               2026-05-04 20:35:51.072
 ***** ** ***  *** **   PROGRAM STARTED ON                         phy-cerberus4
 **    ****   ******    PROGRAM STARTED BY                                 crm98
 ***** **    ** ** **   PROGRAM PROCESS ID                               1842990
  **** **  *******  **  PROGRAM STARTED IN /local/data/public/crm98/cp2k-benchma
                                           rks/results/cp2k_feature_native_splin
                                           e/NNP/NNP_size_scaling_feature-nnp-na
                                           tive-spline_04-05_20-35/N_1024

 CP2K| version string:                 CP2K version 2026.1 (Development Version)
 CP2K| source code revision number:                                   151b7d1223
 CP2K| cp2kflags: omp libint fftw3 libxc parallel scalapack mpi_f08 cosma ace de
 CP2K|            epmd xsmm plumed2 spglib libdftd4 dftd4_v3 mctc-lib tblite lib
 CP2K|            bvori libbqb libtorch mimic hdf5 trexio libsmeagol greenx
 CP2K| is freely available from                            https://www.cp2k.org/
 CP2K| Program compiled at                                   2026-05-04 20:24:42
 CP2K| Program compiled on                                         phy-cerberus4
 CP2K| Program compiled for                                               x86_64
 CP2K| Data directory path           /local/data/public/crm98/original_cp2k/data
 CP2K| Input file name                                                   run.inp

 GLOBAL| Force Environment number                                              1
 GLOBAL| Basis set file name                                           BASIS_SET
 GLOBAL| Potential file name                                           POTENTIAL
 GLOBAL| MM Potential file name                                     MM_POTENTIAL
 GLOBAL| Coordinate file name                                      __STD_INPUT__
 GLOBAL| Method name                                                        CP2K
 GLOBAL| Project name                                              H2O-64_NNP_MD
 GLOBAL| Run type                                                             MD
 GLOBAL| FFT library                                                       FFTW3
 GLOBAL| Diagonalization library                                       ScaLAPACK
 GLOBAL| Cholesky decomposition library                                ScaLAPACK
 GLOBAL| DGEMM library                                                      BLAS
 GLOBAL| Orthonormality check for eigenvectors                          DISABLED
 GLOBAL| Matrix multiplication library                                     COSMA
 GLOBAL| All-to-all communication in single precision                          F
 GLOBAL| FFTs using library dependent lengths                                  F
 GLOBAL| Grid backend                                                       AUTO
 GLOBAL| Global print level                                                  LOW
 GLOBAL| MPI I/O enabled                                                       T
 GLOBAL| Total number of message passing processes                            36
 GLOBAL| Number of distributed systems (nodes)                                 1
 GLOBAL| Number of threads for this process                                    1
 GLOBAL| This output is from process                                           0
 GLOBAL| OpenMP stack size per thread (OMP_STACKSIZE)                    default
 GLOBAL| CPU model name                              Intel(R) Xeon(R) Gold 5418Y
 GLOBAL| CPUID                                                              1003

 MEMORY| system memory details [Kb]
 MEMORY|                        rank 0           min           max       average
 MEMORY| MemTotal            263594404     263594404     263594404     263594404
 MEMORY| MemFree             188603496     188603496     188603496     188603496
 MEMORY| Buffers               2226452       2226452       2226452       2226452
 MEMORY| Cached               56873528      56873528      56873528      56873528
 MEMORY| Slab                  6866840       6866840       6866840       6866840
 MEMORY| SReclaimable          5232104       5232104       5232104       5232104
 MEMORY| MemLikelyFree       252935580     252935580     252935580     252935580


 GENERATE|  Preliminary Number of Bonds generated:                             0
 GENERATE|  Achieved consistency in connectivity generation.
 
 NNP| Neural Network Potential Force Environment
 NNP| Reading NNP input from file: NNP/bulkH2O-jcp2020-cnnp/nnp-1/input.nn
 NNP| Activation functions:  1  1  3
 NNP| short range atomic symmetry functions element H :
 NNP|   1 H   2 H             0.001  0.000 12.000
 NNP|   2 H   2 O             0.001  0.000 12.000
 NNP|   3 H   2 H             0.010  0.000 12.000
 NNP|   4 H   2 O             0.010  0.000 12.000
 NNP|   5 H   2 H             0.030  0.000 12.000
 NNP|   6 H   2 O             0.030  0.000 12.000
 NNP|   7 H   2 H             0.060  0.000 12.000
 NNP|   8 H   2 O             0.060  0.000 12.000
 NNP|   9 H   2 O             0.150  0.900 12.000
 NNP|  10 H   2 H             0.150  1.900 12.000
 NNP|  11 H   2 O             0.300  0.900 12.000
 NNP|  12 H   2 H             0.300  1.900 12.000
 NNP|  13 H   2 O             0.600  0.900 12.000
 NNP|  14 H   2 H             0.600  1.900 12.000
 NNP|  15 H   2 O             1.500  0.900 12.000
 NNP|  16 H   2 H             1.500  1.900 12.000
 NNP|   1 H   3 O  O   0.001 -1.000  4.000 12.000
 NNP|   2 H   3 O  O   0.001  1.000  4.000 12.000
 NNP|   3 H   3 H  O   0.010 -1.000  4.000 12.000
 NNP|   4 H   3 H  O   0.010  1.000  4.000 12.000
 NNP|   5 H   3 H  O   0.030 -1.000  1.000 12.000
 NNP|   6 H   3 O  O   0.030 -1.000  1.000 12.000
 NNP|   7 H   3 H  O   0.030  1.000  1.000 12.000
 NNP|   8 H   3 O  O   0.030  1.000  1.000 12.000
 NNP|   9 H   3 H  O   0.070 -1.000  1.000 12.000
 NNP|  10 H   3 H  O   0.070  1.000  1.000 12.000
 NNP|  11 H   3 H  O   0.200  1.000  1.000 12.000
 NNP| short range atomic symmetry functions element O :
 NNP|   1 O   2 H             0.001  0.000 12.000
 NNP|   2 O   2 O             0.001  0.000 12.000
 NNP|   3 O   2 H             0.010  0.000 12.000
 NNP|   4 O   2 O             0.010  0.000 12.000
 NNP|   5 O   2 H             0.030  0.000 12.000
 NNP|   6 O   2 O             0.030  0.000 12.000
 NNP|   7 O   2 H             0.060  0.000 12.000
 NNP|   8 O   2 O             0.060  0.000 12.000
 NNP|   9 O   2 H             0.150  0.900 12.000
 NNP|  10 O   2 O             0.150  4.000 12.000
 NNP|  11 O   2 H             0.300  0.900 12.000
 NNP|  12 O   2 O             0.300  4.000 12.000
 NNP|  13 O   2 H             0.600  0.900 12.000
 NNP|  14 O   2 O             0.600  4.000 12.000
 NNP|  15 O   2 H             1.500  0.900 12.000
 NNP|  16 O   2 O             1.500  4.000 12.000
 NNP|   1 O   3 H  O   0.001 -1.000  4.000 12.000
 NNP|   2 O   3 O  O   0.001 -1.000  4.000 12.000
 NNP|   3 O   3 H  O   0.001  1.000  4.000 12.000
 NNP|   4 O   3 O  O   0.001  1.000  4.000 12.000
 NNP|   5 O   3 H  H   0.010 -1.000  4.000 12.000
 NNP|   6 O   3 H  H   0.010  1.000  4.000 12.000
 NNP|   7 O   3 H  H   0.030 -1.000  1.000 12.000
 NNP|   8 O   3 H  O   0.030 -1.000  1.000 12.000
 NNP|   9 O   3 O  O   0.030 -1.000  1.000 12.000
 NNP|  10 O   3 H  H   0.030  1.000  1.000 12.000
 NNP|  11 O   3 H  O   0.030  1.000  1.000 12.000
 NNP|  12 O   3 O  O   0.030  1.000  1.000 12.000
 NNP|  13 O   3 H  H   0.070 -1.000  1.000 12.000
 NNP|  14 O   3 H  H   0.070  1.000  1.000 12.000
 NNP| Neural network specification for element H :
 NNP|  27 nodes in layer  1
 NNP|  20 nodes in layer  2
 NNP|  20 nodes in layer  3
 NNP|   1 nodes in layer  4
 NNP| Neural network specification for element O :
 NNP|  30 nodes in layer  1
 NNP|  20 nodes in layer  2
 NNP|  20 nodes in layer  3
 NNP|   1 nodes in layer  4
 NNP| Reading scaling information from file: NNP/bulkH2O-jcp2020-cnnp/nnp-1/input.nn
 NNP| Initializing weights for model:            1
 NNP| Reading weights from file: NNP/bulkH2O-jcp2020-cnnp/nnp-1/weights.001.data
 NNP| Reading weights from file: NNP/bulkH2O-jcp2020-cnnp/nnp-1/weights.008.data
 NNP| NNP force environment initialized

 MD_PAR| Molecular dynamics protocol (MD input parameters)
 MD_PAR| Ensemble type                                                       NVT
 MD_PAR| Number of time steps                                                100
 MD_PAR| Time step [fs]                                                 0.500000
 MD_PAR| Temperature [K]                                              300.000000
 MD_PAR| Temperature tolerance [K]                                      0.000000
 MD_PAR| Print MD information every                                    1 step(s)
 MD_PAR| File type   Print frequency [steps]                          File names
 MD_PAR| Coordinates          1                          H2O-64_NNP_MD-pos-1.xyz
 MD_PAR| Velocities           1                          H2O-64_NNP_MD-vel-1.xyz
 MD_PAR| Energies             1                             H2O-64_NNP_MD-1.ener
 MD_PAR| Dump                20                          H2O-64_NNP_MD-1.restart

 ROT| Rotational analysis information
 ROT| Principal axes and moments of inertia [a.u.]
 ROT|                           1                   2                   3
 ROT| Eigenvalues      2.65129702357E+10   4.79228077286E+10   4.93676999485E+10
 ROT|      x             -0.996548577921     -0.019859296177     -0.080601117854
 ROT|      y              0.066986952827     -0.765844261888     -0.639527415116
 ROT|      z              0.049027339261      0.642719359355     -0.764531323829
 ROT| Number of rotovibrational vectors                                        6

 DOF| Calculation of degrees of freedom
 DOF| Number of atoms                                                       3072
 DOF| Number of intramolecular constraints                                     0
 DOF| Number of intermolecular constraints                                     0
 DOF| Invariants (translations + rotations)                                    3
 DOF| Degrees of freedom                                                    9213

 DOF| Restraints information
 DOF| Number of intramolecular restraints                                      0
 DOF| Number of intermolecular restraints                                      0

 THERMOSTAT| Thermostat information for PARTICLES
 THERMOSTAT| Type of thermostat            Canonical Sampling/Velocity Rescaling
 THERMOSTAT| CSVR time constant [fs]                                   30.000000
 THERMOSTAT| Initial kinetic energy                           0.000000000000E+00
 THERMOSTAT| End of thermostat information for PARTICLES

 MD_VEL| Velocities initialization
 MD_VEL| Initial temperature [K]                                      300.000000
 MD_VEL| COM velocity            -0.0000000000     0.0000000000     0.0000000000

 ENERGY| Total FORCE_EVAL ( NNP ) energy [hartree]         60033.189016333759355

 MD_INI| MD initialization
 MD_INI| Potential energy [hartree]                           0.600331890163E+05
 MD_INI| Kinetic energy [hartree]                             0.437638046366E+01
 MD_INI| Temperature [K]                                              300.000000
 MD_INI| Cell volume [bohr^3]                                 2.068623132942E+05
 MD_INI| Cell volume [ang^3]                                  3.065383180800E+04
 MD_INI| Cell lengths [bohr]      9.38815943E+01  4.69407971E+01  4.69407971E+01
 MD_INI| Cell lengths [ang]       4.96800000E+01  2.48400000E+01  2.48400000E+01
 MD_INI| Cell angles [deg]        9.00000000E+01  9.00000000E+01  9.00000000E+01

 ENERGY| Total FORCE_EVAL ( NNP ) energy [hartree]         60032.201216944653424

 MD| ***************************************************************************
 MD| Step number                                                               1
 MD| Time [fs]                                                          0.500000
 MD| Conserved quantity [hartree]                             0.600369608512E+05
 MD| ---------------------------------------------------------------------------
 MD|                                          Instantaneous             Averages
 MD| CPU time per MD step [s]                      0.097397             0.097397
 MD| Energy drift per atom [K]          -0.621419813125E+02   0.000000000000E+00
 MD| Potential energy [hartree]          0.600322012169E+05   0.600322012169E+05
 MD| Kinetic energy [hartree]            0.473939463494E+01   0.473939463494E+01
 MD| Temperature [K]                             324.884548           324.884548
 MD| ***************************************************************************
 MD| Estimated peak process memory after this step [MiB]                     274

 ENERGY| Total FORCE_EVAL ( NNP ) energy [hartree]         60031.253704547285452

 MD| ***************************************************************************
 MD| Step number                                                               2
 MD| Time [fs]                                                          1.000000
 MD| Conserved quantity [hartree]                             0.600369178791E+05
 MD| ---------------------------------------------------------------------------
 MD|                                          Instantaneous             Averages
 MD| CPU time per MD step [s]                      0.052128             0.074763
 MD| Energy drift per atom [K]          -0.665591356123E+02  -0.332795678062E+02
 MD| Potential energy [hartree]          0.600312537045E+05   0.600317274607E+05
 MD| Kinetic energy [hartree]            0.562689968420E+01   0.518314715957E+01
 MD| Temperature [K]                             385.722841           355.303695
 MD| ***************************************************************************
 MD| Estimated peak process memory after this step [MiB]                     274

 ENERGY| Total FORCE_EVAL ( NNP ) energy [hartree]         60030.570300015926477

 MD| ***************************************************************************
 MD| Step number                                                               3
 MD| Time [fs]                                                          1.500000
 MD| Conserved quantity [hartree]                             0.600369899039E+05
 MD| ---------------------------------------------------------------------------
 MD|                                          Instantaneous             Averages
 MD| CPU time per MD step [s]                      0.055879             0.068468
 MD| Energy drift per atom [K]          -0.591556246673E+02  -0.419049200932E+02
 MD| Potential energy [hartree]          0.600305703000E+05   0.600313417405E+05
 MD| Kinetic energy [hartree]            0.635326760353E+01   0.557318730756E+01
 MD| Temperature [K]                             435.515216           382.040868
 MD| ***************************************************************************
 MD| Estimated peak process memory after this step [MiB]                     274

 ENERGY| Total FORCE_EVAL ( NNP ) energy [hartree]         60030.800078447784472

 MD| ***************************************************************************
 MD| Step number                                                               4
 MD| Time [fs]                                                          2.000000
 MD| Conserved quantity [hartree]                             0.600372064041E+05
 MD| ---------------------------------------------------------------------------
 MD|                                          Instantaneous             Averages
 MD| CPU time per MD step [s]                      0.052783             0.064547
 MD| Energy drift per atom [K]          -0.369012985612E+02  -0.406540147102E+02
 MD| Potential energy [hartree]          0.600308000784E+05   0.600312063250E+05
 MD| Kinetic energy [hartree]            0.631012983681E+01   0.575742293987E+01
 MD| Temperature [K]                             432.558130           394.670184
 MD| ***************************************************************************
 MD| Estimated peak process memory after this step [MiB]                     274

 ENERGY| Total FORCE_EVAL ( NNP ) energy [hartree]         60031.294436978860176

 MD| ***************************************************************************
 MD| Step number                                                               5
 MD| Time [fs]                                                          2.500000
 MD| Conserved quantity [hartree]                             0.600378349118E+05
 MD| ---------------------------------------------------------------------------
 MD|                                          Instantaneous             Averages
 MD| CPU time per MD step [s]                      0.055188             0.062675
 MD| Energy drift per atom [K]           0.277037747492E+02  -0.269824568183E+02
 MD| Potential energy [hartree]          0.600312944370E+05   0.600312239474E+05
 MD| Kinetic energy [hartree]            0.641749066810E+01   0.588943648552E+01
 MD| Temperature [K]                             439.917694           403.719686
 MD| ***************************************************************************
 MD| Estimated peak process memory after this step [MiB]                     274

 ENERGY| Total FORCE_EVAL ( NNP ) energy [hartree]         60027.640293704855139

 MD| ***************************************************************************
 MD| Step number                                                               6
 MD| Time [fs]                                                          3.000000
 MD| Conserved quantity [hartree]                             0.600354837248E+05
 MD| ---------------------------------------------------------------------------
 MD|                                          Instantaneous             Averages
 MD| CPU time per MD step [s]                      0.049439             0.060469
 MD| Energy drift per atom [K]          -0.213977617047E+03  -0.581483168564E+02
 MD| Potential energy [hartree]          0.600276402937E+05   0.600306266718E+05
 MD| Kinetic energy [hartree]            0.766283587357E+01   0.618500305019E+01
 MD| Temperature [K]                             525.285857           423.980714
 MD| ***************************************************************************
 MD| Estimated peak process memory after this step [MiB]                     274

 ENERGY| Total FORCE_EVAL ( NNP ) energy [hartree]         60026.465590275627619

 MD| ***************************************************************************
 MD| Step number                                                               7
 MD| Time [fs]                                                          3.500000
 MD| Conserved quantity [hartree]                             0.600358152613E+05
 MD| ---------------------------------------------------------------------------
 MD|                                          Instantaneous             Averages
 MD| CPU time per MD step [s]                      0.051684             0.059214
 MD| Energy drift per atom [K]          -0.179898569864E+03  -0.755412101432E+02
 MD| Potential energy [hartree]          0.600264655903E+05   0.600300322316E+05
 MD| Kinetic energy [hartree]            0.910474070951E+01   0.660210843009E+01
 MD| Temperature [K]                             624.128143           452.573204
 MD| ***************************************************************************
 MD| Estimated peak process memory after this step [MiB]                     274

 ENERGY| Total FORCE_EVAL ( NNP ) energy [hartree]         60025.744241728054476

 MD| ***************************************************************************
 MD| Step number                                                               8
 MD| Time [fs]                                                          4.000000
 MD| Conserved quantity [hartree]                             0.600357965792E+05
 MD| ---------------------------------------------------------------------------
 MD|                                          Instantaneous             Averages
 MD| CPU time per MD step [s]                      0.049291             0.057974
 MD| Energy drift per atom [K]          -0.181818934533E+03  -0.888259256920E+02
 MD| Potential energy [hartree]          0.600257442417E+05   0.600294962328E+05
 MD| Kinetic energy [hartree]            0.973058772578E+01   0.699316834206E+01
 MD| Temperature [K]                             667.029830           479.380282
 MD| ***************************************************************************
 MD| Estimated peak process memory after this step [MiB]                     274

 ENERGY| Total FORCE_EVAL ( NNP ) energy [hartree]         60025.312578490535088

 MD| ***************************************************************************
 MD| Step number                                                               9
 MD| Time [fs]                                                          4.500000
 MD| Conserved quantity [hartree]                             0.600356400673E+05
 MD| ---------------------------------------------------------------------------
 MD|                                          Instantaneous             Averages
 MD| CPU time per MD step [s]                      0.053314             0.057456
 MD| Energy drift per atom [K]          -0.197906978158E+03  -0.100946042633E+03
 MD| Potential energy [hartree]          0.600253125785E+05   0.600290313823E+05
 MD| Kinetic energy [hartree]            0.989051152840E+01   0.731509536276E+01
 MD| Temperature [K]                             677.992575           501.448315
 MD| ***************************************************************************
 MD| Estimated peak process memory after this step [MiB]                     274

 ENERGY| Total FORCE_EVAL ( NNP ) energy [hartree]         60025.494543988083024

 MD| ***************************************************************************
 MD| Step number                                                              10
 MD| Time [fs]                                                          5.000000
 MD| Conserved quantity [hartree]                             0.600362018663E+05
 MD| ---------------------------------------------------------------------------
 MD|                                          Instantaneous             Averages
 MD| CPU time per MD step [s]                      0.050971             0.056807
 MD| Energy drift per atom [K]          -0.140158970468E+03  -0.104867335416E+03
 MD| Potential energy [hartree]          0.600254945440E+05   0.600286776985E+05
 MD| Kinetic energy [hartree]            0.101920692458E+02   0.760279275107E+01
 MD| Temperature [K]                             698.664296           521.169913
 MD| ***************************************************************************
 MD| Estimated peak process memory after this step [MiB]                     274

 ENERGY| Total FORCE_EVAL ( NNP ) energy [hartree]         60027.561723230988719

 MD| ***************************************************************************
 MD| Step number                                                              11
 MD| Time [fs]                                                          5.500000
 MD| Conserved quantity [hartree]                             0.600388379751E+05
 MD| ---------------------------------------------------------------------------
 MD|                                          Instantaneous             Averages
 MD| CPU time per MD step [s]                      0.071872             0.058177
 MD| Energy drift per atom [K]           0.130809882006E+03  -0.834421338323E+02
 MD| Potential energy [hartree]          0.600275617232E+05   0.600285762462E+05
 MD| Kinetic energy [hartree]            0.106558086208E+02   0.788033964832E+01
 MD| Temperature [K]                             730.453536           540.195697
 MD| ***************************************************************************
 MD| Estimated peak process memory after this step [MiB]                     274

 ENERGY| Total FORCE_EVAL ( NNP ) energy [hartree]         60029.050343916169368

 MD| ***************************************************************************
 MD| Step number                                                              12
 MD| Time [fs]                                                          6.000000
 MD| Conserved quantity [hartree]                             0.600413671346E+05
 MD| ---------------------------------------------------------------------------
 MD|                                          Instantaneous             Averages
 MD| CPU time per MD step [s]                      0.052351             0.057691
 MD| Energy drift per atom [K]           0.390785294060E+03  -0.439231815079E+02
 MD| Potential energy [hartree]          0.600290503439E+05   0.600286157544E+05
 MD| Kinetic energy [hartree]            0.115689245986E+02   0.818772172751E+01
 MD| Temperature [K]                             793.047453           561.266677
 MD| ***************************************************************************
 MD| Estimated peak process memory after this step [MiB]                     274

 ENERGY| Total FORCE_EVAL ( NNP ) energy [hartree]         60022.715355896114488

 MD| ***************************************************************************
 MD| Step number                                                              13
 MD| Time [fs]                                                          6.500000
 MD| Conserved quantity [hartree]                             0.600401137570E+05
 MD| ---------------------------------------------------------------------------
 MD|                                          Instantaneous             Averages
 MD| CPU time per MD step [s]                      0.049283             0.057045
 MD| Energy drift per atom [K]           0.261949072218E+03  -0.203945466060E+02
 MD| Potential energy [hartree]          0.600227153559E+05   0.600281618776E+05
 MD| Kinetic energy [hartree]            0.164844385978E+02   0.882593071753E+01
 MD| Temperature [K]                            1130.004948           605.015774
 MD| ***************************************************************************
 MD| Estimated peak process memory after this step [MiB]                     274

 ENERGY| Total FORCE_EVAL ( NNP ) energy [hartree]         60018.515807270909136

 MD| ***************************************************************************
 MD| Step number                                                              14
 MD| Time [fs]                                                          7.000000
 MD| Conserved quantity [hartree]                             0.600385540566E+05
 MD| ---------------------------------------------------------------------------
 MD|                                          Instantaneous             Averages
 MD| CPU time per MD step [s]                      0.052626             0.056729
 MD| Energy drift per atom [K]           0.101625550926E+03  -0.116788253537E+02
 MD| Potential energy [hartree]          0.600185158073E+05   0.600274728725E+05
 MD| Kinetic energy [hartree]            0.188640494732E+02   0.954293920008E+01
 MD| Temperature [K]                            1293.126795           654.166562
 MD| ***************************************************************************
 MD| Estimated peak process memory after this step [MiB]                     274

 ENERGY| Total FORCE_EVAL ( NNP ) energy [hartree]         60020.669966898749408

 MD| ***************************************************************************
 MD| Step number                                                              15
 MD| Time [fs]                                                          7.500000
 MD| Conserved quantity [hartree]                             0.600484026341E+05
 MD| ---------------------------------------------------------------------------
 MD|                                          Instantaneous             Averages
 MD| CPU time per MD step [s]                      0.049338             0.056236
 MD| Energy drift per atom [K]           0.111397291038E+04   0.633646236954E+02
 MD| Potential energy [hartree]          0.600206699669E+05   0.600270193455E+05
 MD| Kinetic energy [hartree]            0.262609104503E+02   0.106574706168E+02
 MD| Temperature [K]                            1800.180126           730.567466
 MD| ***************************************************************************
 MD| Estimated peak process memory after this step [MiB]                     274

 ENERGY| Total FORCE_EVAL ( NNP ) energy [hartree]         60024.132625869766343

 MD| ***************************************************************************
 MD| Step number                                                              16
 MD| Time [fs]                                                          8.000000
 MD| Conserved quantity [hartree]                             0.600902533475E+05
 MD| ---------------------------------------------------------------------------
 MD|                                          Instantaneous             Averages
 MD| CPU time per MD step [s]                      0.051882             0.055964
 MD| Energy drift per atom [K]           0.541585908038E+04   0.397895527238E+03
 MD| Potential energy [hartree]          0.600241326259E+05   0.600268389255E+05
 MD| Kinetic energy [hartree]            0.640031610630E+02   0.139915762696E+02
 MD| Temperature [K]                            4387.403810           959.119737
 MD| ***************************************************************************
 MD| Estimated peak process memory after this step [MiB]                     274

 ENERGY| Total FORCE_EVAL ( NNP ) energy [hartree]         60022.357076702122868

 MD| ***************************************************************************
 MD| Step number                                                              17
 MD| Time [fs]                                                          8.500000
 MD| Conserved quantity [hartree]                             0.600914381947E+05
 MD| ---------------------------------------------------------------------------
 MD|                                          Instantaneous             Averages
 MD| CPU time per MD step [s]                      0.049295             0.055572
 MD| Energy drift per atom [K]           0.553765097555E+04   0.700234083021E+03
 MD| Potential energy [hartree]          0.600223570767E+05   0.600265752873E+05
 MD| Kinetic energy [hartree]            0.659007921957E+02   0.170450595594E+02
 MD| Temperature [K]                            4517.486042          1168.435402
 MD| ***************************************************************************
 MD| Estimated peak process memory after this step [MiB]                     274

 ENERGY| Total FORCE_EVAL ( NNP ) energy [hartree]         60017.464611040624732

 MD| ***************************************************************************
 MD| Step number                                                              18
 MD| Time [fs]                                                          9.000000
 MD| Conserved quantity [hartree]                             0.600961921686E+05
 MD| ---------------------------------------------------------------------------
 MD|                                          Instantaneous             Averages
 MD| CPU time per MD step [s]                      0.051373             0.055339
 MD| Energy drift per atom [K]           0.602631778554E+04   0.996127622050E+03
 MD| Potential energy [hartree]          0.600174646110E+05   0.600260691387E+05
 MD| Kinetic energy [hartree]            0.745149156632E+02   0.202378293430E+02
 MD| Temperature [K]                            5107.982472          1387.299128
 MD| ***************************************************************************
 MD| Estimated peak process memory after this step [MiB]                     274

 ENERGY| Total FORCE_EVAL ( NNP ) energy [hartree]         60030.701409632703871

 MD| ***************************************************************************
 MD| Step number                                                              19
 MD| Time [fs]                                                          9.500000
 MD| Conserved quantity [hartree]                             0.601308996670E+05
 MD| ---------------------------------------------------------------------------
 MD|                                          Instantaneous             Averages
 MD| CPU time per MD step [s]                      0.050483             0.055083
 MD| Energy drift per atom [K]           0.959394411661E+04   0.144864427966E+04
 MD| Potential energy [hartree]          0.600307014096E+05   0.600263129424E+05
 MD| Kinetic energy [hartree]            0.946565104706E+02   0.241546020339E+02
 MD| Temperature [K]                            6488.684742          1655.793108
 MD| ***************************************************************************
 MD| Estimated peak process memory after this step [MiB]                     274

 ENERGY| Total FORCE_EVAL ( NNP ) energy [hartree]         60030.679447953254567

 MD| ***************************************************************************
 MD| Step number                                                              20
 MD| Time [fs]                                                         10.000000
 MD| Conserved quantity [hartree]                             0.601308988321E+05
 MD| ---------------------------------------------------------------------------
 MD|                                          Instantaneous             Averages
 MD| CPU time per MD step [s]                      0.051903             0.054924
 MD| Energy drift per atom [K]           0.959385828744E+04   0.185590498005E+04
 MD| Potential energy [hartree]          0.600306794480E+05   0.600265312677E+05
 MD| Kinetic energy [hartree]            0.931397879754E+02   0.276038613310E+02
 MD| Temperature [K]                            6384.713721          1892.239139
 MD| ***************************************************************************
 MD| Estimated peak process memory after this step [MiB]                     274

 ENERGY| Total FORCE_EVAL ( NNP ) energy [hartree]         60029.302850486375974

 MD| ***************************************************************************
 MD| Step number                                                              21
 MD| Time [fs]                                                         10.500000
 MD| Conserved quantity [hartree]                             0.601303378015E+05
 MD| ---------------------------------------------------------------------------
 MD|                                          Instantaneous             Averages
 MD| CPU time per MD step [s]                      0.072555             0.055764
 MD| Energy drift per atom [K]           0.953618926643E+04   0.222163280321E+04
 MD| Potential energy [hartree]          0.600293028505E+05   0.600266632478E+05
 MD| Kinetic energy [hartree]            0.925007297927E+02   0.306941884006E+02
 MD| Temperature [K]                            6340.906411          2104.080437
 MD| ***************************************************************************
 MD| Estimated peak process memory after this step [MiB]                     275

 ENERGY| Total FORCE_EVAL ( NNP ) energy [hartree]         60031.319667113501055

 MD| ***************************************************************************
 MD| Step number                                                              22
 MD| Time [fs]                                                         11.000000
 MD| Conserved quantity [hartree]                             0.601329988389E+05
 MD| ---------------------------------------------------------------------------
 MD|                                          Instantaneous             Averages
 MD| CPU time per MD step [s]                      0.055970             0.055773
 MD| Energy drift per atom [K]           0.980972056885E+04   0.256654588346E+04
 MD| Potential energy [hartree]          0.600313196671E+05   0.600268749032E+05
 MD| Kinetic energy [hartree]            0.916579905039E+02   0.334652703144E+02
 MD| Temperature [K]                            6283.136802          2294.037545
 MD| ***************************************************************************
 MD| Estimated peak process memory after this step [MiB]                     275

 ENERGY| Total FORCE_EVAL ( NNP ) energy [hartree]         60029.840369319812453

 MD| ***************************************************************************
 MD| Step number                                                              23
 MD| Time [fs]                                                         11.500000
 MD| Conserved quantity [hartree]                             0.601329742381E+05
 MD| ---------------------------------------------------------------------------
 MD|                                          Instantaneous             Averages
 MD| CPU time per MD step [s]                      0.052672             0.055638
 MD| Energy drift per atom [K]           0.980719182215E+04   0.288135657645E+04
 MD| Potential energy [hartree]          0.600298403693E+05   0.600270038365E+05
 MD| Kinetic energy [hartree]            0.916804465815E+02   0.359963649347E+02
 MD| Temperature [K]                            6284.676162          2467.543572
 MD| ***************************************************************************
 MD| Estimated peak process memory after this step [MiB]                     275

 ENERGY| Total FORCE_EVAL ( NNP ) energy [hartree]         60020.614425359912275

 MD| ***************************************************************************
 MD| Step number                                                              24
 MD| Time [fs]                                                         12.000000
 MD| Conserved quantity [hartree]                             0.601333477653E+05
 MD| ---------------------------------------------------------------------------
 MD|                                          Instantaneous             Averages
 MD| CPU time per MD step [s]                      0.054588             0.055594
 MD| Energy drift per atom [K]           0.984558713392E+04   0.317153284968E+04
 MD| Potential energy [hartree]          0.600206144254E+05   0.600267376111E+05
 MD| Kinetic energy [hartree]            0.997452385483E+02   0.386525680019E+02
 MD| Temperature [K]                            6837.516028          2649.625757
 MD| ***************************************************************************
 MD| Estimated peak process memory after this step [MiB]                     275

 ENERGY| Total FORCE_EVAL ( NNP ) energy [hartree]         60028.084289392267237

 MD| ***************************************************************************
 MD| Step number                                                              25
 MD| Time [fs]                                                         12.500000
 MD| Conserved quantity [hartree]                             0.601671431202E+05
 MD| ---------------------------------------------------------------------------
 MD|                                          Instantaneous             Averages
 MD| CPU time per MD step [s]                      0.052600             0.055475
 MD| Energy drift per atom [K]           0.133194531214E+05   0.357744966055E+04
 MD| Potential energy [hartree]          0.600280842894E+05   0.600267914782E+05
 MD| Kinetic energy [hartree]            0.124401173554E+03   0.420825122240E+02
 MD| Temperature [K]                            8527.675410          2884.747743
 MD| ***************************************************************************
 MD| Estimated peak process memory after this step [MiB]                     275

 ENERGY| Total FORCE_EVAL ( NNP ) energy [hartree]         60021.905532931494236

 MD| ***************************************************************************
 MD| Step number                                                              26
 MD| Time [fs]                                                         13.000000
 MD| Conserved quantity [hartree]                             0.601654143322E+05
 MD| ---------------------------------------------------------------------------
 MD|                                          Instantaneous             Averages
 MD| CPU time per MD step [s]                      0.053135             0.055385
 MD| Energy drift per atom [K]           0.131417488803E+05   0.394530732285E+04
 MD| Potential energy [hartree]          0.600219055329E+05   0.600266035572E+05
 MD| Kinetic energy [hartree]            0.126869324552E+03   0.453435434674E+02
 MD| Temperature [K]                            8696.866664          3108.290779
 MD| ***************************************************************************
 MD| Estimated peak process memory after this step [MiB]                     275

 ENERGY| Total FORCE_EVAL ( NNP ) energy [hartree]         60029.510420950442494

 MD| ***************************************************************************
 MD| Step number                                                              27
 MD| Time [fs]                                                         13.500000
 MD| Conserved quantity [hartree]                             0.601801198128E+05
 MD| ---------------------------------------------------------------------------
 MD|                                          Instantaneous             Averages
 MD| CPU time per MD step [s]                      0.051399             0.055237
 MD| Energy drift per atom [K]           0.146533432691E+05   0.434190124678E+04
 MD| Potential energy [hartree]          0.600295104210E+05   0.600267112189E+05
 MD| Kinetic energy [hartree]            0.131907781460E+03   0.485496263560E+02
 MD| Temperature [K]                            9042.251872          3328.067116
 MD| ***************************************************************************
 MD| Estimated peak process memory after this step [MiB]                     275

 ENERGY| Total FORCE_EVAL ( NNP ) energy [hartree]         60025.785461520135868

 MD| ***************************************************************************
 MD| Step number                                                              28
 MD| Time [fs]                                                         14.000000
 MD| Conserved quantity [hartree]                             0.601794582749E+05
 MD| ---------------------------------------------------------------------------
 MD|                                          Instantaneous             Averages
 MD| CPU time per MD step [s]                      0.051552             0.055105
 MD| Energy drift per atom [K]           0.145853429745E+05   0.470773845134E+04
 MD| Potential energy [hartree]          0.600257854615E+05   0.600266781561E+05
 MD| Kinetic energy [hartree]            0.132889072501E+03   0.515617494326E+02
 MD| Temperature [K]                            9109.519175          3534.547546
 MD| ***************************************************************************
 MD| Estimated peak process memory after this step [MiB]                     275

 ENERGY| Total FORCE_EVAL ( NNP ) energy [hartree]         60018.627315313045983

 MD| ***************************************************************************
 MD| Step number                                                              29
 MD| Time [fs]                                                         14.500000
 MD| Conserved quantity [hartree]                             0.601873659256E+05
 MD| ---------------------------------------------------------------------------
 MD|                                          Instantaneous             Averages
 MD| CPU time per MD step [s]                      0.051949             0.054997
 MD| Energy drift per atom [K]           0.153981800891E+05   0.507637436989E+04
 MD| Potential energy [hartree]          0.600186273153E+05   0.600264005409E+05
 MD| Kinetic energy [hartree]            0.145844494629E+03   0.548128785773E+02
 MD| Temperature [K]                            9997.610754          3757.411795
 MD| ***************************************************************************
 MD| Estimated peak process memory after this step [MiB]                     275

 ENERGY| Total FORCE_EVAL ( NNP ) energy [hartree]         60023.335228887597623

 MD| ***************************************************************************
 MD| Step number                                                              30
 MD| Time [fs]                                                         15.000000
 MD| Conserved quantity [hartree]                             0.602221671420E+05
 MD| ---------------------------------------------------------------------------
 MD|                                          Instantaneous             Averages
 MD| CPU time per MD step [s]                      0.055879             0.055026
 MD| Energy drift per atom [K]           0.189754398128E+05   0.553967655132E+04
 MD| Potential energy [hartree]          0.600233352289E+05   0.600262983638E+05
 MD| Kinetic energy [hartree]            0.173375051325E+03   0.587649510022E+02
 MD| Temperature [K]                           11884.824875          4028.325564
 MD| ***************************************************************************
 MD| Estimated peak process memory after this step [MiB]                     275

 ENERGY| Total FORCE_EVAL ( NNP ) energy [hartree]         60022.313554471911630

 MD| ***************************************************************************
 MD| Step number                                                              31
 MD| Time [fs]                                                         15.500000
 MD| Conserved quantity [hartree]                             0.602295566133E+05
 MD| ---------------------------------------------------------------------------
 MD|                                          Instantaneous             Averages
 MD| CPU time per MD step [s]                      0.060745             0.055210
 MD| Energy drift per atom [K]           0.197350126226E+05   0.599759061813E+04
 MD| Potential energy [hartree]          0.600223135545E+05   0.600261698216E+05
 MD| Kinetic energy [hartree]            0.178834437676E+03   0.626381602498E+02
 MD| Temperature [K]                           12259.064711          4293.833279
 MD| ***************************************************************************
 MD| Estimated peak process memory after this step [MiB]                     275

 ENERGY| Total FORCE_EVAL ( NNP ) energy [hartree]         60016.536999078205554

 MD| ***************************************************************************
 MD| Step number                                                              32
 MD| Time [fs]                                                         16.000000
 MD| Conserved quantity [hartree]                             0.602241634411E+05
 MD| ---------------------------------------------------------------------------
 MD|                                          Instantaneous             Averages
 MD| CPU time per MD step [s]                      0.053496             0.055157
 MD| Energy drift per atom [K]           0.191806418450E+05   0.640956096897E+04
 MD| Potential energy [hartree]          0.600165369991E+05   0.600258687959E+05
 MD| Kinetic energy [hartree]            0.176328310970E+03   0.661909774598E+02
 MD| Temperature [K]                           12087.270229          4537.378183
 MD| ***************************************************************************
 MD| Estimated peak process memory after this step [MiB]                     275

 ENERGY| Total FORCE_EVAL ( NNP ) energy [hartree]         60017.169118319194240

 MD| ***************************************************************************
 MD| Step number                                                              33
 MD| Time [fs]                                                         16.500000
 MD| Conserved quantity [hartree]                             0.602272852424E+05
 MD| ---------------------------------------------------------------------------
 MD|                                          Instantaneous             Averages
 MD| CPU time per MD step [s]                      0.054298             0.055131
 MD| Energy drift per atom [K]           0.195015356303E+05   0.680628747386E+04
 MD| Potential energy [hartree]          0.600171691183E+05   0.600256051693E+05
 MD| Kinetic energy [hartree]            0.175871428919E+03   0.695146275040E+02
 MD| Temperature [K]                           12055.951057          4765.213725
 MD| ***************************************************************************
 MD| Estimated peak process memory after this step [MiB]                     275

 ENERGY| Total FORCE_EVAL ( NNP ) energy [hartree]         60014.027941589156399

 MD| ***************************************************************************
 MD| Step number                                                              34
 MD| Time [fs]                                                         17.000000
 MD| Conserved quantity [hartree]                             0.602346220914E+05
 MD| ---------------------------------------------------------------------------
 MD|                                          Instantaneous             Averages
 MD| CPU time per MD step [s]                      0.054380             0.055109
 MD| Energy drift per atom [K]           0.202556993352E+05   0.720185841096E+04
 MD| Potential energy [hartree]          0.600140279416E+05   0.600252646626E+05
 MD| Kinetic energy [hartree]            0.183285101325E+03   0.728608179105E+02
 MD| Temperature [K]                           12564.156808          4994.594404
 MD| ***************************************************************************
 MD| Estimated peak process memory after this step [MiB]                     275

 ENERGY| Total FORCE_EVAL ( NNP ) energy [hartree]         60012.430947888424271

 MD| ***************************************************************************
 MD| Step number                                                              35
 MD| Time [fs]                                                         17.500000
 MD| Conserved quantity [hartree]                             0.602604966736E+05
 MD| ---------------------------------------------------------------------------
 MD|                                          Instantaneous             Averages
 MD| CPU time per MD step [s]                      0.054894             0.055103
 MD| Energy drift per atom [K]           0.229153793734E+05   0.765081615274E+04
 MD| Potential energy [hartree]          0.600124309479E+05   0.600248979850E+05
 MD| Kinetic energy [hartree]            0.207515422325E+03   0.767080923223E+02
 MD| Temperature [K]                           14225.140436          5258.324291
 MD| ***************************************************************************
 MD| Estimated peak process memory after this step [MiB]                     275

 ENERGY| Total FORCE_EVAL ( NNP ) energy [hartree]         60010.611130891324137

 MD| ***************************************************************************
 MD| Step number                                                              36
 MD| Time [fs]                                                         18.000000
 MD| Conserved quantity [hartree]                             0.602621786611E+05
 MD| ---------------------------------------------------------------------------
 MD|                                          Instantaneous             Averages
 MD| CPU time per MD step [s]                      0.050515             0.054975
 MD| Energy drift per atom [K]           0.230882729285E+05   0.807963439651E+04
 MD| Potential energy [hartree]          0.600106111309E+05   0.600245011280E+05
 MD| Kinetic energy [hartree]            0.207563271703E+03   0.803429584162E+02
 MD| Temperature [K]                           14228.420501          5507.493630
 MD| ***************************************************************************
 MD| Estimated peak process memory after this step [MiB]                     275

 ENERGY| Total FORCE_EVAL ( NNP ) energy [hartree]         60010.564774438571476

 MD| ***************************************************************************
 MD| Step number                                                              37
 MD| Time [fs]                                                         18.500000
 MD| Conserved quantity [hartree]                             0.602640256734E+05
 MD| ---------------------------------------------------------------------------
 MD|                                          Instantaneous             Averages
 MD| CPU time per MD step [s]                      0.054926             0.054974
 MD| Energy drift per atom [K]           0.232781295905E+05   0.849040453689E+04
 MD| Potential energy [hartree]          0.600105647744E+05   0.600241244698E+05
 MD| Kinetic energy [hartree]            0.206104539675E+03   0.837419200719E+02
 MD| Temperature [K]                           14128.424714          5740.491767
 MD| ***************************************************************************
 MD| Estimated peak process memory after this step [MiB]                     275

 ENERGY| Total FORCE_EVAL ( NNP ) energy [hartree]         60008.952367018333462

 MD| ***************************************************************************
 MD| Step number                                                              38
 MD| Time [fs]                                                         19.000000
 MD| Conserved quantity [hartree]                             0.602631261874E+05
 MD| ---------------------------------------------------------------------------
 MD|                                          Instantaneous             Averages
 MD| CPU time per MD step [s]                      0.052175             0.054900
 MD| Energy drift per atom [K]           0.231856703244E+05   0.887712205761E+04
 MD| Potential energy [hartree]          0.600089523670E+05   0.600237252039E+05
 MD| Kinetic energy [hartree]            0.203561083716E+03   0.868950559573E+02
 MD| Temperature [K]                           13954.071320          5956.638598
 MD| ***************************************************************************
 MD| Estimated peak process memory after this step [MiB]                     275

 ENERGY| Total FORCE_EVAL ( NNP ) energy [hartree]         60004.288068337089499

 MD| ***************************************************************************
 MD| Step number                                                              39
 MD| Time [fs]                                                         19.500000
 MD| Conserved quantity [hartree]                             0.602805405150E+05
 MD| ---------------------------------------------------------------------------
 MD|                                          Instantaneous             Averages
 MD| CPU time per MD step [s]                      0.052225             0.054832
 MD| Energy drift per atom [K]           0.249757104117E+05   0.928990637439E+04
 MD| Potential energy [hartree]          0.600042880683E+05   0.600232268158E+05
 MD| Kinetic energy [hartree]            0.222229726266E+03   0.903651757088E+02
 MD| Temperature [K]                           15233.803010          6194.514608
 MD| ***************************************************************************
 MD| Estimated peak process memory after this step [MiB]                     275

 ENERGY| Total FORCE_EVAL ( NNP ) energy [hartree]         60004.482296776055591

 MD| ***************************************************************************
 MD| Step number                                                              40
 MD| Time [fs]                                                         20.000000
 MD| Conserved quantity [hartree]                             0.603250038818E+05
 MD| ---------------------------------------------------------------------------
 MD|                                          Instantaneous             Averages
 MD| CPU time per MD step [s]                      0.054418             0.054821
 MD| Energy drift per atom [K]           0.295461544232E+05   0.979631257561E+04
 MD| Potential energy [hartree]          0.600044822968E+05   0.600227582028E+05
 MD| Kinetic energy [hartree]            0.262650463151E+03   0.946723078948E+02
 MD| Temperature [K]                           18004.636388          6489.767653
 MD| ***************************************************************************
 MD| Estimated peak process memory after this step [MiB]                     275

 ENERGY| Total FORCE_EVAL ( NNP ) energy [hartree]         59998.324147965315206

 MD| ***************************************************************************
 MD| Step number                                                              41
 MD| Time [fs]                                                         20.500000
 MD| Conserved quantity [hartree]                             0.603379350379E+05
 MD| ---------------------------------------------------------------------------
 MD|                                          Instantaneous             Averages
 MD| CPU time per MD step [s]                      0.075917             0.055336
 MD| Energy drift per atom [K]           0.308753638198E+05   0.103104357767E+05
 MD| Potential energy [hartree]          0.599983241480E+05   0.600221622503E+05
 MD| Kinetic energy [hartree]            0.277299318486E+03   0.991266252263E+02
 MD| Temperature [K]                           19008.812473          6795.110209
 MD| ***************************************************************************
 MD| Estimated peak process memory after this step [MiB]                     275

 ENERGY| Total FORCE_EVAL ( NNP ) energy [hartree]         59993.639143554035400

 MD| ***************************************************************************
 MD| Step number                                                              42
 MD| Time [fs]                                                         21.000000
 MD| Conserved quantity [hartree]                             0.603797360216E+05
 MD| ---------------------------------------------------------------------------
 MD|                                          Instantaneous             Averages
 MD| CPU time per MD step [s]                      0.055371             0.055337
 MD| Energy drift per atom [K]           0.351721382070E+05   0.109023810726E+05
 MD| Potential energy [hartree]          0.599936391436E+05   0.600214831287E+05
 MD| Kinetic energy [hartree]            0.318983146787E+03   0.104361304311E+03
 MD| Temperature [K]                           21866.230514          7153.946407
 MD| ***************************************************************************
 MD| Estimated peak process memory after this step [MiB]                     275

 ENERGY| Total FORCE_EVAL ( NNP ) energy [hartree]         59993.918436708248919

 MD| ***************************************************************************
 MD| Step number                                                              43
 MD| Time [fs]                                                         21.500000
 MD| Conserved quantity [hartree]                             0.604061477477E+05
 MD| ---------------------------------------------------------------------------
 MD|                                          Instantaneous             Averages
 MD| CPU time per MD step [s]                      0.051397             0.055245
 MD| Energy drift per atom [K]           0.378870319257E+05   0.115299310925E+05
 MD| Potential energy [hartree]          0.599939184367E+05   0.600208420893E+05
 MD| Kinetic energy [hartree]            0.339833564452E+03   0.109837403384E+03
 MD| Temperature [K]                           23295.522449          7529.331896
 MD| ***************************************************************************
 MD| Estimated peak process memory after this step [MiB]                     275

 ENERGY| Total FORCE_EVAL ( NNP ) energy [hartree]         59990.683391226353706

 MD| ***************************************************************************
 MD| Step number                                                              44
 MD| Time [fs]                                                         22.000000
 MD| Conserved quantity [hartree]                             0.604089728780E+05
 MD| ---------------------------------------------------------------------------
 MD|                                          Instantaneous             Averages
 MD| CPU time per MD step [s]                      0.052946             0.055193
 MD| Energy drift per atom [K]           0.381774305322E+05   0.121355560797E+05
 MD| Potential energy [hartree]          0.599906833912E+05   0.600201566644E+05
 MD| Kinetic energy [hartree]            0.340278071405E+03   0.115074691294E+03
 MD| Temperature [K]                           23325.993311          7888.346928
 MD| ***************************************************************************
 MD| Estimated peak process memory after this step [MiB]                     275

 ENERGY| Total FORCE_EVAL ( NNP ) energy [hartree]         59986.573594329754997

 MD| ***************************************************************************
 MD| Step number                                                              45
 MD| Time [fs]                                                         22.500000
 MD| Conserved quantity [hartree]                             0.604205773704E+05
 MD| ---------------------------------------------------------------------------
 MD|                                          Instantaneous             Averages
 MD| CPU time per MD step [s]                      0.052252             0.055127
 MD| Energy drift per atom [K]           0.393702705440E+05   0.127407719567E+05
 MD| Potential energy [hartree]          0.599865735943E+05   0.600194103739E+05
 MD| Kinetic energy [hartree]            0.350292168930E+03   0.120301746352E+03
 MD| Temperature [K]                           24012.457681          8246.660501
 MD| ***************************************************************************
 MD| Estimated peak process memory after this step [MiB]                     275

 ENERGY| Total FORCE_EVAL ( NNP ) energy [hartree]         59969.794910492426425

 MD| ***************************************************************************
 MD| Step number                                                              46
 MD| Time [fs]                                                         23.000000
 MD| Conserved quantity [hartree]                             0.604500466505E+05
 MD| ---------------------------------------------------------------------------
 MD|                                          Instantaneous             Averages
 MD| CPU time per MD step [s]                      0.055874             0.055144
 MD| Energy drift per atom [K]           0.423994539858E+05   0.133855259139E+05
 MD| Potential energy [hartree]          0.599697949105E+05   0.600183317769E+05
 MD| Kinetic energy [hartree]            0.390394974325E+03   0.126173338265E+03
 MD| Temperature [K]                           26761.496920          8649.156945
 MD| ***************************************************************************
 MD| Estimated peak process memory after this step [MiB]                     275

 ENERGY| Total FORCE_EVAL ( NNP ) energy [hartree]         59976.978400041509303

 MD| ***************************************************************************
 MD| Step number                                                              47
 MD| Time [fs]                                                         23.500000
 MD| Conserved quantity [hartree]                             0.604823463628E+05
 MD| ---------------------------------------------------------------------------
 MD|                                          Instantaneous             Averages
 MD| CPU time per MD step [s]                      0.055546             0.055152
 MD| Energy drift per atom [K]           0.457195810286E+05   0.140734845333E+05
 MD| Potential energy [hartree]          0.599769784000E+05   0.600174519178E+05
 MD| Kinetic energy [hartree]            0.408868626719E+03   0.132188131636E+03
 MD| Temperature [K]                           28027.862073          9061.469820
 MD| ***************************************************************************
 MD| Estimated peak process memory after this step [MiB]                     275

 ENERGY| Total FORCE_EVAL ( NNP ) energy [hartree]         59979.817031483362371

 MD| ***************************************************************************
 MD| Step number                                                              48
 MD| Time [fs]                                                         24.000000
 MD| Conserved quantity [hartree]                             0.605008702540E+05
 MD| ---------------------------------------------------------------------------
 MD|                                          Instantaneous             Averages
 MD| CPU time per MD step [s]                      0.055499             0.055159
 MD| Energy drift per atom [K]           0.476236745331E+05   0.147724468250E+05
 MD| Potential energy [hartree]          0.599798170315E+05   0.600166678577E+05
 MD| Kinetic energy [hartree]            0.417736919898E+03   0.138137064725E+03
 MD| Temperature [K]                           28635.781786          9469.267986
 MD| ***************************************************************************
 MD| Estimated peak process memory after this step [MiB]                     275

 ENERGY| Total FORCE_EVAL ( NNP ) energy [hartree]         59958.892338265104627

 MD| ***************************************************************************
 MD| Step number                                                              49
 MD| Time [fs]                                                         24.500000
 MD| Conserved quantity [hartree]                             0.605022585971E+05
 MD| ---------------------------------------------------------------------------
 MD|                                          Instantaneous             Averages
 MD| CPU time per MD step [s]                      0.056043             0.055177
 MD| Energy drift per atom [K]           0.477663840168E+05   0.154457924820E+05
 MD| Potential energy [hartree]          0.599588923383E+05   0.600154887655E+05
 MD| Kinetic energy [hartree]            0.433021573124E+03   0.144155115917E+03
 MD| Temperature [K]                           29683.541688          9881.804184
 MD| ***************************************************************************
 MD| Estimated peak process memory after this step [MiB]                     275

 ENERGY| Total FORCE_EVAL ( NNP ) energy [hartree]         59955.412250389184919

 MD| ***************************************************************************
 MD| Step number                                                              50
 MD| Time [fs]                                                         25.000000
 MD| Conserved quantity [hartree]                             0.605240804925E+05
 MD| ---------------------------------------------------------------------------
 MD|                                          Instantaneous             Averages
 MD| CPU time per MD step [s]                      0.052968             0.055133
 MD| Energy drift per atom [K]           0.500094834128E+05   0.161370663006E+05
 MD| Potential energy [hartree]          0.599554122504E+05   0.600142872352E+05
 MD| Kinetic energy [hartree]            0.451042757613E+03   0.150292868751E+03
 MD| Temperature [K]                           30918.890258         10302.545905
 MD| ***************************************************************************
 MD| Estimated peak process memory after this step [MiB]                     275

 ENERGY| Total FORCE_EVAL ( NNP ) energy [hartree]         59931.866945381618279

 MD| ***************************************************************************
 MD| Step number                                                              51
 MD| Time [fs]                                                         25.500000
 MD| Conserved quantity [hartree]                             0.605349563804E+05
 MD| ---------------------------------------------------------------------------
 MD|                                          Instantaneous             Averages
 MD| CPU time per MD step [s]                      0.055921             0.055149
 MD| Energy drift per atom [K]           0.511274292698E+05   0.168231518490E+05
 MD| Potential energy [hartree]          0.599318669454E+05   0.600126711510E+05
 MD| Kinetic energy [hartree]            0.477671695750E+03   0.156712061437E+03
 MD| Temperature [K]                           32744.298608         10742.580272
 MD| ***************************************************************************
 MD| Estimated peak process memory after this step [MiB]                     275

 ENERGY| Total FORCE_EVAL ( NNP ) energy [hartree]         59941.863360742354416

 MD| ***************************************************************************
 MD| Step number                                                              52
 MD| Time [fs]                                                         26.000000
 MD| Conserved quantity [hartree]                             0.605961700631E+05
 MD| ---------------------------------------------------------------------------
 MD|                                          Instantaneous             Averages
 MD| CPU time per MD step [s]                      0.053789             0.055123
 MD| Energy drift per atom [K]           0.574196587914E+05   0.176038539056E+05
 MD| Potential energy [hartree]          0.599418633607E+05   0.600113094628E+05
 MD| Kinetic energy [hartree]            0.520608482203E+03   0.163710069529E+03
 MD| Temperature [K]                           35687.606678         11222.292318
 MD| ***************************************************************************
 MD| Estimated peak process memory after this step [MiB]                     275

 ENERGY| Total FORCE_EVAL ( NNP ) energy [hartree]         59934.341369781432149

 MD| ***************************************************************************
 MD| Step number                                                              53
 MD| Time [fs]                                                         26.500000
 MD| Conserved quantity [hartree]                             0.606284659239E+05
 MD| ---------------------------------------------------------------------------
 MD|                                          Instantaneous             Averages
 MD| CPU time per MD step [s]                      0.053338             0.055089
 MD| Energy drift per atom [K]           0.607393899356E+05   0.184177319439E+05
 MD| Potential energy [hartree]          0.599343413698E+05   0.600098572346E+05
 MD| Kinetic energy [hartree]            0.551488126825E+03   0.171026636647E+03
 MD| Temperature [K]                           37804.400102         11723.841522
 MD| ***************************************************************************
 MD| Estimated peak process memory after this step [MiB]                     275

 ENERGY| Total FORCE_EVAL ( NNP ) energy [hartree]         59926.005811071889184

 MD| ***************************************************************************
 MD| Step number                                                              54
 MD| Time [fs]                                                         27.000000
 MD| Conserved quantity [hartree]                             0.606567636773E+05
 MD| ---------------------------------------------------------------------------
 MD|                                          Instantaneous             Averages
 MD| CPU time per MD step [s]                      0.051003             0.055013
 MD| Energy drift per atom [K]           0.636481507226E+05   0.192553322917E+05
 MD| Potential energy [hartree]          0.599260058111E+05   0.600083044305E+05
 MD| Kinetic energy [hartree]            0.578746410620E+03   0.178577002832E+03
 MD| Temperature [K]                           39672.949970         12241.417604
 MD| ***************************************************************************
 MD| Estimated peak process memory after this step [MiB]                     275

 ENERGY| Total FORCE_EVAL ( NNP ) energy [hartree]         59923.488816595745448

 MD| ***************************************************************************
 MD| Step number                                                              55
 MD| Time [fs]                                                         27.500000
 MD| Conserved quantity [hartree]                             0.606931068575E+05
 MD| ---------------------------------------------------------------------------
 MD|                                          Instantaneous             Averages
 MD| CPU time per MD step [s]                      0.057757             0.055063
 MD| Energy drift per atom [K]           0.673839107889E+05   0.201303973552E+05
 MD| Potential energy [hartree]          0.599234888166E+05   0.600067623284E+05
 MD| Kinetic energy [hartree]            0.607815729444E+03   0.186381343316E+03
 MD| Temperature [K]                           41665.645925         12776.403573
 MD| ***************************************************************************
 MD| Estimated peak process memory after this step [MiB]                     275

 ENERGY| Total FORCE_EVAL ( NNP ) energy [hartree]         59929.064408029284095

 MD| ***************************************************************************
 MD| Step number                                                              56
 MD| Time [fs]                                                         28.000000
 MD| Conserved quantity [hartree]                             0.607286959341E+05
 MD| ---------------------------------------------------------------------------
 MD|                                          Instantaneous             Averages
 MD| CPU time per MD step [s]                      0.052957             0.055026
 MD| Energy drift per atom [K]           0.710421556189E+05   0.210395358957E+05
 MD| Potential energy [hartree]          0.599290644080E+05   0.600053748655E+05
 MD| Kinetic energy [hartree]            0.627668059524E+03   0.194261463248E+03
 MD| Temperature [K]                           43026.519157         13316.584209
 MD| ***************************************************************************
 MD| Estimated peak process memory after this step [MiB]                     275

 ENERGY| Total FORCE_EVAL ( NNP ) energy [hartree]         59916.788328612972691

 MD| ***************************************************************************
 MD| Step number                                                              57
 MD| Time [fs]                                                         28.500000
 MD| Conserved quantity [hartree]                             0.607355786758E+05
 MD| ---------------------------------------------------------------------------
 MD|                                          Instantaneous             Averages
 MD| CPU time per MD step [s]                      0.053151             0.054993
 MD| Energy drift per atom [K]           0.717496410802E+05   0.219291868638E+05
 MD| Potential energy [hartree]          0.599167883286E+05   0.600038207158E+05
 MD| Kinetic energy [hartree]            0.636257315398E+03   0.202015776444E+03
 MD| Temperature [K]                           43615.310918         13848.140818
 MD| ***************************************************************************
 MD| Estimated peak process memory after this step [MiB]                     275

 ENERGY| Total FORCE_EVAL ( NNP ) energy [hartree]         59904.788433635738329

 MD| ***************************************************************************
 MD| Step number                                                              58
 MD| Time [fs]                                                         29.000000
 MD| Conserved quantity [hartree]                             0.607669938906E+05
 MD| ---------------------------------------------------------------------------
 MD|                                          Instantaneous             Averages
 MD| CPU time per MD step [s]                      0.053334             0.054964
 MD| Energy drift per atom [K]           0.749788495466E+05   0.228438362204E+05
 MD| Potential energy [hartree]          0.599047884336E+05   0.600021132626E+05
 MD| Kinetic energy [hartree]            0.668749869339E+03   0.210062915976E+03
 MD| Temperature [K]                           45842.668952         14399.770613
 MD| ***************************************************************************
 MD| Estimated peak process memory after this step [MiB]                     275

 ENERGY| Total FORCE_EVAL ( NNP ) energy [hartree]         59884.933021478369483

 MD| ***************************************************************************
 MD| Step number                                                              59
 MD| Time [fs]                                                         29.500000
 MD| Conserved quantity [hartree]                             0.608001116204E+05
 MD| ---------------------------------------------------------------------------
 MD|                                          Instantaneous             Averages
 MD| CPU time per MD step [s]                      0.055657             0.054976
 MD| Energy drift per atom [K]           0.783830616067E+05   0.237851790236E+05
 MD| Potential energy [hartree]          0.598849330215E+05   0.600001271568E+05
[...]
 MD| Time [fs]                                                         45.000000
 MD| Conserved quantity [hartree]                             0.666570310642E+05
 MD| ---------------------------------------------------------------------------
 MD|                                          Instantaneous             Averages
 MD| CPU time per MD step [s]                      0.059280             0.055560
 MD| Energy drift per atom [K]           0.680422994929E+06   0.121531346023E+06
 MD| Potential energy [hartree]          0.584899247420E+05   0.597723455452E+05
 MD| Kinetic energy [hartree]            0.648256059665E+04   0.116352578256E+04
 MD| Temperature [K]                          444378.224230         79759.458225
 MD| ***************************************************************************
 MD| Estimated peak process memory after this step [MiB]                     275

 ENERGY| Total FORCE_EVAL ( NNP ) energy [hartree]         58478.310391837469069

 MD| ***************************************************************************
 MD| Step number                                                              91
 MD| Time [fs]                                                         45.500000
 MD| Conserved quantity [hartree]                             0.670099647311E+05
 MD| ---------------------------------------------------------------------------
 MD|                                          Instantaneous             Averages
 MD| CPU time per MD step [s]                      0.056345             0.055569
 MD| Energy drift per atom [K]           0.716701479436E+06   0.128071677160E+06
 MD| Potential energy [hartree]          0.584783103918E+05   0.597581253787E+05
 MD| Kinetic energy [hartree]            0.673687515185E+04   0.122477138002E+04
 MD| Temperature [K]                          461811.435806         83957.831605
 MD| ***************************************************************************
 MD| Estimated peak process memory after this step [MiB]                     275

 ENERGY| Total FORCE_EVAL ( NNP ) energy [hartree]         58379.508978321478935

 MD| ***************************************************************************
 MD| Step number                                                              92
 MD| Time [fs]                                                         46.000000
 MD| Conserved quantity [hartree]                             0.673022150779E+05
 MD| ---------------------------------------------------------------------------
 MD|                                          Instantaneous             Averages
 MD| CPU time per MD step [s]                      0.060544             0.055623
 MD| Energy drift per atom [K]           0.746742251039E+06   0.134796357311E+06
 MD| Potential energy [hartree]          0.583795089783E+05   0.597431404179E+05
 MD| Kinetic energy [hartree]            0.701290806969E+04   0.128768590926E+04
 MD| Temperature [K]                          480733.436770         88270.609922
 MD| ***************************************************************************
 MD| Estimated peak process memory after this step [MiB]                     275

 ENERGY| Total FORCE_EVAL ( NNP ) energy [hartree]         58188.520979573047953

 MD| ***************************************************************************
 MD| Step number                                                              93
 MD| Time [fs]                                                         46.500000
 MD| Conserved quantity [hartree]                             0.676458811734E+05
 MD| ---------------------------------------------------------------------------
 MD|                                          Instantaneous             Averages
 MD| CPU time per MD step [s]                      0.058498             0.055654
 MD| Energy drift per atom [K]           0.782068110516E+06   0.141756268635E+06
 MD| Potential energy [hartree]          0.581885209796E+05   0.597264240798E+05
 MD| Kinetic energy [hartree]            0.742769993656E+04   0.135370756546E+04
 MD| Temperature [K]                          509167.335764         92796.381167
 MD| ***************************************************************************
 MD| Estimated peak process memory after this step [MiB]                     275

 ENERGY| Total FORCE_EVAL ( NNP ) energy [hartree]         58038.110189223087218

 MD| ***************************************************************************
 MD| Step number                                                              94
 MD| Time [fs]                                                         47.000000
 MD| Conserved quantity [hartree]                             0.680043691816E+05
 MD| ---------------------------------------------------------------------------
 MD|                                          Instantaneous             Averages
 MD| CPU time per MD step [s]                      0.058773             0.055687
 MD| Energy drift per atom [K]           0.818917532576E+06   0.148960111869E+06
 MD| Potential energy [hartree]          0.580381101892E+05   0.597084632937E+05
 MD| Kinetic energy [hartree]            0.781053336123E+04   0.142239720159E+04
 MD| Temperature [K]                          535410.489976         97505.041899
 MD| ***************************************************************************
 MD| Estimated peak process memory after this step [MiB]                     275

 ENERGY| Total FORCE_EVAL ( NNP ) energy [hartree]         57905.272991564132099

 MD| ***************************************************************************
 MD| Step number                                                              95
 MD| Time [fs]                                                         47.500000
 MD| Conserved quantity [hartree]                             0.683649173040E+05
 MD| ---------------------------------------------------------------------------
 MD|                                          Instantaneous             Averages
 MD| CPU time per MD step [s]                      0.059188             0.055724
 MD| Energy drift per atom [K]           0.855978716300E+06   0.156402412968E+06
 MD| Potential energy [hartree]          0.579052729916E+05   0.596894823432E+05
 MD| Kinetic energy [hartree]            0.817045534645E+04   0.149342939259E+04
 MD| Temperature [K]                          560083.069626        102374.284297
 MD| ***************************************************************************
 MD| Estimated peak process memory after this step [MiB]                     275

 ENERGY| Total FORCE_EVAL ( NNP ) energy [hartree]         57683.445763041330792

 MD| ***************************************************************************
 MD| Step number                                                              96
 MD| Time [fs]                                                         48.000000
 MD| Conserved quantity [hartree]                             0.687330439320E+05
 MD| ---------------------------------------------------------------------------
 MD|                                          Instantaneous             Averages
 MD| CPU time per MD step [s]                      0.057321             0.055740
 MD| Energy drift per atom [K]           0.893818903907E+06   0.164083834749E+06
 MD| Potential energy [hartree]          0.576834457630E+05   0.596685861288E+05
 MD| Kinetic energy [hartree]            0.862027107686E+04   0.156766732680E+04
 MD| Temperature [K]                          590917.847416        107463.279746
 MD| ***************************************************************************
 MD| Estimated peak process memory after this step [MiB]                     275

 ENERGY| Total FORCE_EVAL ( NNP ) energy [hartree]         57577.865508802853583

 MD| ***************************************************************************
 MD| Step number                                                              97
 MD| Time [fs]                                                         48.500000
 MD| Conserved quantity [hartree]                             0.694721572241E+05
 MD| ---------------------------------------------------------------------------
 MD|                                          Instantaneous             Averages
 MD| CPU time per MD step [s]                      0.058471             0.055769
 MD| Energy drift per atom [K]           0.969793265746E+06   0.172390117542E+06
 MD| Potential energy [hartree]          0.575778655088E+05   0.596470323080E+05
 MD| Kinetic energy [hartree]            0.931556133450E+04   0.164754252275E+04
 MD| Temperature [K]                          638579.854644        112938.708353
 MD| ***************************************************************************
 MD| Estimated peak process memory after this step [MiB]                     275

 ENERGY| Total FORCE_EVAL ( NNP ) energy [hartree]         57449.809281132758770

 MD| ***************************************************************************
 MD| Step number                                                              98
 MD| Time [fs]                                                         49.000000
 MD| Conserved quantity [hartree]                             0.707976070582E+05
 MD| ---------------------------------------------------------------------------
 MD|                                          Instantaneous             Averages
 MD| CPU time per MD step [s]                      0.055938             0.055770
 MD| Energy drift per atom [K]           0.110603787990E+07   0.181917135526E+06
 MD| Potential energy [hartree]          0.574498092811E+05   0.596246116649E+05
 MD| Kinetic energy [hartree]            0.106045725102E+05   0.173894078793E+04
 MD| Temperature [K]                          726941.311314        119204.041036
 MD| ***************************************************************************
 MD| Estimated peak process memory after this step [MiB]                     275

 ENERGY| Total FORCE_EVAL ( NNP ) energy [hartree]         57235.467594986621407

 MD| ***************************************************************************
 MD| Step number                                                              99
 MD| Time [fs]                                                         49.500000
 MD| Conserved quantity [hartree]                             0.713788640726E+05
 MD| ---------------------------------------------------------------------------
 MD|                                          Instantaneous             Averages
 MD| CPU time per MD step [s]                      0.061421             0.055827
 MD| Energy drift per atom [K]           0.116578600134E+07   0.191855204877E+06
 MD| Potential energy [hartree]          0.572354675950E+05   0.596004788965E+05
 MD| Kinetic energy [hartree]            0.112184965442E+05   0.183469387638E+04
 MD| Temperature [K]                          769025.680285        125767.895978
 MD| ***************************************************************************
 MD| Estimated peak process memory after this step [MiB]                     275

 ENERGY| Total FORCE_EVAL ( NNP ) energy [hartree]         57314.768511828202463

 MD| ***************************************************************************
 MD| Step number                                                             100
 MD| Time [fs]                                                         50.000000
 MD| Conserved quantity [hartree]                             0.723124175242E+05
 MD| ---------------------------------------------------------------------------
 MD|                                          Instantaneous             Averages
 MD| CPU time per MD step [s]                      0.057287             0.055842
 MD| Energy drift per atom [K]           0.126174710567E+07   0.202554123885E+06
 MD| Potential energy [hartree]          0.573147685118E+05   0.595776217926E+05
 MD| Kinetic energy [hartree]            0.118794244979E+05   0.193514118259E+04
 MD| Temperature [K]                          814332.158498        132653.538603
 MD| ***************************************************************************
 MD| Estimated peak process memory after this step [MiB]                     275

 -------------------------------------------------------------------------------
 -                                                                             -
 -                                DBCSR STATISTICS                             -
 -                                                                             -
 -------------------------------------------------------------------------------
 COUNTER                                    TOTAL       BLAS       SMM       ACC
 flops inhomo. stacks                           0       0.0%      0.0%      0.0%
 flops total                         0.000000E+00       0.0%      0.0%      0.0%
 flops max/rank                      0.000000E+00       0.0%      0.0%      0.0%
 matmuls inhomo. stacks                         0       0.0%      0.0%      0.0%
 matmuls total                                  0       0.0%      0.0%      0.0%
 number of processed stacks                     0       0.0%      0.0%      0.0%
 average stack size                                     0.0       0.0       0.0
 marketing flops                     0.000000E+00
 -------------------------------------------------------------------------------
 -                                                                             -
 -                      DBCSR MESSAGE PASSING PERFORMANCE                      -
 -                                                                             -
 -------------------------------------------------------------------------------
 ROUTINE             CALLS      AVE VOLUME [Bytes]
 MP_Bcast                1                     12.
 MP_Allreduce           19                     21.
 -------------------------------------------------------------------------------

 MEMORY| Estimated peak process memory [MiB]                                 275

 -------------------------------------------------------------------------------
 -                                                                             -
 -                         MESSAGE PASSING PERFORMANCE                         -
 -                                                                             -
 -------------------------------------------------------------------------------

 ROUTINE             CALLS      AVE VOLUME [Bytes]
 MP_Bcast              286                 179373.
 MP_Allreduce         1444                  17334.
 -------------------------------------------------------------------------------


 -------------------------------------------------------------------------------
 -                                                                             -
 -                           R E F E R E N C E S                               -
 -                                                                             -
 -------------------------------------------------------------------------------
 
 CP2K version 2026.1 (Development Version), the CP2K developers group (2026).
 CP2K is freely available from https://www.cp2k.org/ .
 
 C. Schran, J. Behler, D. Marx.
 J. Chem. Theory Comput. 16, 88-99 (2020).
 Automated Fitting of Neural Network Potentials at Coupled Cluster Accuracy: 
 Protonated Water Clusters as Testing Ground.
 https://doi.org/10.1021/acs.jctc.9b00805

 C. Schran, K. Brezina, O. Marsalek.
 J. Chem. Phys. 153, 104105 (2020).
 Committee neural network potentials control generalization errors and enable 
 active learning.
 https://doi.org/10.1063/5.0016004

 O. Schuett, P. Messmer, J. Hutter, J. VandeVondele.
 Electronic Structure Calculations on Graphics Processing Units, 173-190 (2016).
 GPU-Accelerated Sparse Matrix-Matrix Multiplication for Linear Scaling Density 
 Functional Theory.
 https://doi.org/10.1002/9781118670712.ch8

 A. Heinecke, G. Henry, M. Hutchinson, H. Pabst.
 Proceedings of Intl. Supercomputing Conference, 981-991 (2016).
 LIBXSMM: Accelerating Small Matrix Multiplications by Runtime Code Generation.
 https://doi.org/10.1109/SC.2016.83

 J. Hutter, M. Iannuzzi, F. Schiffmann, J. VandeVondele.
 WIREs Comput Mol Sci. 4, 15-25 (2014).
 CP2K: atomistic simulations of condensed matter systems.
 https://doi.org/10.1002/wcms.1159

 U. Borstnik, J. VandeVondele, V. Weber, J. Hutter.
 Parallel Comput. 40, 47-58 (2014).
 Sparse matrix multiplication: The distributed block-compressed sparse row 
 library.
 https://doi.org/10.1016/j.parco.2014.03.012

 J. Behler.
 J. Chem. Phys. 134, 074106 (2011).
 Atom-centered symmetry functions for constructing high-dimensional neural 
 network potentials.
 https://doi.org/10.1063/1.3553717

 G. Bussi, D. Donadio, M. Parrinello.
 J. Chem. Phys. 126, 014101 (2007).
 Canonical sampling through velocity rescaling.
 https://doi.org/10.1063/1.2408420

 J. Behler, M. Parrinello.
 Phys. Rev. Lett. 98, 146401 (2007).
 Generalized neural-network representation of high-dimensional potential-energy 
 surfaces.
 https://doi.org/10.1103/PhysRevLett.98.146401

 M. Frigo, S. G. Johnson.
 Proc. IEEE 93, 216-231 (2005).
 The design and implementation of FFTW3.
 https://doi.org/10.1109/JPROC.2004.840301


 -------------------------------------------------------------------------------
 -                                                                             -
 -                                T I M I N G                                  -
 -                                                                             -
 -------------------------------------------------------------------------------
 SUBROUTINE                       CALLS  ASD         SELF TIME        TOTAL TIME
                                MAXIMUM       AVERAGE  MAXIMUM  AVERAGE  MAXIMUM
 CP2K                                 1  1.0    0.007    0.008    5.729    5.729
 qs_mol_dyn_low                       1  2.0    0.004    0.004    5.606    5.620
 velocity_verlet                    100  3.0    0.008    0.010    5.441    5.460
 nnp_calc_energy_force              101  4.0    0.082    0.090    4.560    4.561
 nnp_calc_acsf                     8686  5.0    0.156    0.169    3.320    4.301
 nnp_acsf_angular                  8686  6.0    3.023    3.986    3.023    3.986
 mp_sum_dm                          301  5.0    1.128    1.835    1.128    1.835
 csvr_particles                     200  4.0    0.150    0.155    0.813    0.834
 md_output                          100  3.0    0.000    0.000    0.108    0.757
 mp_sum_dv                          609  4.4    0.695    0.720    0.695    0.720
 md_write_output                    101  4.0    0.009    0.193    0.028    0.644
 write_trajectory                   404  5.0    0.003    0.005    0.016    0.449
 write_particle_coordinates         101  6.0    0.012    0.443    0.012    0.443
 nnp_acsf_radial                   8686  6.0    0.141    0.150    0.141    0.150
 write_restart                      100  4.0    0.003    0.072    0.080    0.119
 -------------------------------------------------------------------------------

 The number of warnings for this run is : 0
 
 -------------------------------------------------------------------------------
  **** **** ******  **  PROGRAM ENDED AT                 2026-05-04 20:35:57.578
 ***** ** ***  *** **   PROGRAM RAN ON                             phy-cerberus4
 **    ****   ******    PROGRAM RAN BY                                     crm98
 ***** **    ** ** **   PROGRAM PROCESS ID                               1842990
  **** **  *******  **  PROGRAM STOPPED IN /local/data/public/crm98/cp2k-benchma
                                           rks/results/cp2k_feature_native_splin
                                           e/NNP/NNP_size_scaling_feature-nnp-na
                                           tive-spline_04-05_20-35/N_1024
