 DBCSR| CPU Multiplication driver                                           XSMM (U)
 DBCSR| Multrec recursion limit                                              512 (U)
 DBCSR| Multiplication stack size                                           1000 (D)
 DBCSR| Maximum elements for images                                    UNLIMITED (U)
 DBCSR| Multiplicative factor virtual images                                   1 (U)
 DBCSR| Use multiplication densification                                       T (D)
 DBCSR| Multiplication size stacks                                             3 (U)
 DBCSR| Use memory pool for CPU allocation                                     F (U)
 DBCSR| Number of 3D layers                                               SINGLE (U)
 DBCSR| Use MPI memory allocation                                              F (U)
 DBCSR| Use RMA algorithm                                                      F (U)
 DBCSR| Use Communication thread                                               T (U)
 DBCSR| Communication thread load                                             87 (D)
 DBCSR| MPI: My process id                                                     0
 DBCSR| MPI: Number of processes                                              32
 DBCSR| OMP: Current number of threads                                         1
 DBCSR| OMP: Max number of threads                                             1
 DBCSR| Split modifier for TAS multiplication algorithm                  1.0E+00 (U)


  **** **** ******  **  PROGRAM STARTED AT               2026-04-30 04:02:59.032
 ***** ** ***  *** **   PROGRAM STARTED ON                         phy-cerberus4
 **    ****   ******    PROGRAM STARTED BY                                 crm98
 ***** **    ** ** **   PROGRAM PROCESS ID                                870495
  **** **  *******  **  PROGRAM STARTED IN /lsc/zeushome/crm98/cp2k_benchmarks/c
                                           p2k_optimized/NNP/NNP_size_scaling_fe
                                           ature-nnp-verlet-cells_30-04_04-02/N_
                                           256

 CP2K| version string:                 CP2K version 2026.1 (Development Version)
 CP2K| source code revision number:                                   151b7d1223
 CP2K| cp2kflags: omp libint fftw3 libxc parallel scalapack mpi_f08 cosma ace de
 CP2K|            epmd xsmm plumed2 spglib libdftd4 dftd4_v3 mctc-lib tblite lib
 CP2K|            bvori libbqb libtorch mimic hdf5 trexio libsmeagol greenx
 CP2K| is freely available from                            https://www.cp2k.org/
 CP2K| Program compiled at                                   2026-04-29 19:17:47
 CP2K| Program compiled on                                         phy-cerberus4
 CP2K| Program compiled for                                               x86_64
 CP2K| Data directory path           /local/data/public/crm98/original_cp2k/data
 CP2K| Input file name                                                   run.inp

 GLOBAL| Force Environment number                                              1
 GLOBAL| Basis set file name                                           BASIS_SET
 GLOBAL| Potential file name                                           POTENTIAL
 GLOBAL| MM Potential file name                                     MM_POTENTIAL
 GLOBAL| Coordinate file name                                      __STD_INPUT__
 GLOBAL| Method name                                                        CP2K
 GLOBAL| Project name                                              H2O-64_NNP_MD
 GLOBAL| Run type                                                             MD
 GLOBAL| FFT library                                                       FFTW3
 GLOBAL| Diagonalization library                                       ScaLAPACK
 GLOBAL| Cholesky decomposition library                                ScaLAPACK
 GLOBAL| DGEMM library                                                      BLAS
 GLOBAL| Orthonormality check for eigenvectors                          DISABLED
 GLOBAL| Matrix multiplication library                                     COSMA
 GLOBAL| All-to-all communication in single precision                          F
 GLOBAL| FFTs using library dependent lengths                                  F
 GLOBAL| Grid backend                                                       AUTO
 GLOBAL| Global print level                                                  LOW
 GLOBAL| MPI I/O enabled                                                       T
 GLOBAL| Total number of message passing processes                            32
 GLOBAL| Number of distributed systems (nodes)                                 1
 GLOBAL| Number of threads for this process                                    1
 GLOBAL| This output is from process                                           0
 GLOBAL| OpenMP stack size per thread (OMP_STACKSIZE)                    default
 GLOBAL| CPU model name                              Intel(R) Xeon(R) Gold 5418Y
 GLOBAL| CPUID                                                              1003

 MEMORY| system memory details [Kb]
 MEMORY|                        rank 0           min           max       average
 MEMORY| MemTotal            263594404     263594404     263594404     263594404
 MEMORY| MemFree              60073144      60073144      60073144      60073144
 MEMORY| Buffers               2790868       2790868       2790868       2790868
 MEMORY| Cached              182926408     182926404     182926408     182926404
 MEMORY| Slab                  9780340       9780340       9780340       9780340
 MEMORY| SReclaimable          8161816       8161816       8161816       8161816
 MEMORY| MemLikelyFree       253952236     253952232     253952236     253952232


 GENERATE|  Preliminary Number of Bonds generated:                             0
 GENERATE|  Achieved consistency in connectivity generation.
 
 NNP| Neural Network Potential Force Environment
 NNP| Reading NNP input from file: NNP/bulkH2O-jcp2020-cnnp/nnp-1/input.nn
 NNP| Activation functions:  1  1  3
 NNP| short range atomic symmetry functions element H :
 NNP|   1 H   2 H             0.001  0.000 12.000
 NNP|   2 H   2 O             0.001  0.000 12.000
 NNP|   3 H   2 H             0.010  0.000 12.000
 NNP|   4 H   2 O             0.010  0.000 12.000
 NNP|   5 H   2 H             0.030  0.000 12.000
 NNP|   6 H   2 O             0.030  0.000 12.000
 NNP|   7 H   2 H             0.060  0.000 12.000
 NNP|   8 H   2 O             0.060  0.000 12.000
 NNP|   9 H   2 O             0.150  0.900 12.000
 NNP|  10 H   2 H             0.150  1.900 12.000
 NNP|  11 H   2 O             0.300  0.900 12.000
 NNP|  12 H   2 H             0.300  1.900 12.000
 NNP|  13 H   2 O             0.600  0.900 12.000
 NNP|  14 H   2 H             0.600  1.900 12.000
 NNP|  15 H   2 O             1.500  0.900 12.000
 NNP|  16 H   2 H             1.500  1.900 12.000
 NNP|   1 H   3 O  O   0.001 -1.000  4.000 12.000
 NNP|   2 H   3 O  O   0.001  1.000  4.000 12.000
 NNP|   3 H   3 H  O   0.010 -1.000  4.000 12.000
 NNP|   4 H   3 H  O   0.010  1.000  4.000 12.000
 NNP|   5 H   3 H  O   0.030 -1.000  1.000 12.000
 NNP|   6 H   3 O  O   0.030 -1.000  1.000 12.000
 NNP|   7 H   3 H  O   0.030  1.000  1.000 12.000
 NNP|   8 H   3 O  O   0.030  1.000  1.000 12.000
 NNP|   9 H   3 H  O   0.070 -1.000  1.000 12.000
 NNP|  10 H   3 H  O   0.070  1.000  1.000 12.000
 NNP|  11 H   3 H  O   0.200  1.000  1.000 12.000
 NNP| short range atomic symmetry functions element O :
 NNP|   1 O   2 H             0.001  0.000 12.000
 NNP|   2 O   2 O             0.001  0.000 12.000
 NNP|   3 O   2 H             0.010  0.000 12.000
 NNP|   4 O   2 O             0.010  0.000 12.000
 NNP|   5 O   2 H             0.030  0.000 12.000
 NNP|   6 O   2 O             0.030  0.000 12.000
 NNP|   7 O   2 H             0.060  0.000 12.000
 NNP|   8 O   2 O             0.060  0.000 12.000
 NNP|   9 O   2 H             0.150  0.900 12.000
 NNP|  10 O   2 O             0.150  4.000 12.000
 NNP|  11 O   2 H             0.300  0.900 12.000
 NNP|  12 O   2 O             0.300  4.000 12.000
 NNP|  13 O   2 H             0.600  0.900 12.000
 NNP|  14 O   2 O             0.600  4.000 12.000
 NNP|  15 O   2 H             1.500  0.900 12.000
 NNP|  16 O   2 O             1.500  4.000 12.000
 NNP|   1 O   3 H  O   0.001 -1.000  4.000 12.000
 NNP|   2 O   3 O  O   0.001 -1.000  4.000 12.000
 NNP|   3 O   3 H  O   0.001  1.000  4.000 12.000
 NNP|   4 O   3 O  O   0.001  1.000  4.000 12.000
 NNP|   5 O   3 H  H   0.010 -1.000  4.000 12.000
 NNP|   6 O   3 H  H   0.010  1.000  4.000 12.000
 NNP|   7 O   3 H  H   0.030 -1.000  1.000 12.000
 NNP|   8 O   3 H  O   0.030 -1.000  1.000 12.000
 NNP|   9 O   3 O  O   0.030 -1.000  1.000 12.000
 NNP|  10 O   3 H  H   0.030  1.000  1.000 12.000
 NNP|  11 O   3 H  O   0.030  1.000  1.000 12.000
 NNP|  12 O   3 O  O   0.030  1.000  1.000 12.000
 NNP|  13 O   3 H  H   0.070 -1.000  1.000 12.000
 NNP|  14 O   3 H  H   0.070  1.000  1.000 12.000
 NNP| Neural network specification for element H :
 NNP|  27 nodes in layer  1
 NNP|  20 nodes in layer  2
 NNP|  20 nodes in layer  3
 NNP|   1 nodes in layer  4
 NNP| Neural network specification for element O :
 NNP|  30 nodes in layer  1
 NNP|  20 nodes in layer  2
 NNP|  20 nodes in layer  3
 NNP|   1 nodes in layer  4
 NNP| Reading scaling information from file: NNP/bulkH2O-jcp2020-cnnp/nnp-1/input.nn
 NNP| Initializing weights for model:            1
 NNP| Reading weights from file: NNP/bulkH2O-jcp2020-cnnp/nnp-1/weights.001.data
 NNP| Reading weights from file: NNP/bulkH2O-jcp2020-cnnp/nnp-1/weights.008.data
 NNP| NNP force environment initialized

 MD_PAR| Molecular dynamics protocol (MD input parameters)
 MD_PAR| Ensemble type                                                       NVT
 MD_PAR| Number of time steps                                                100
 MD_PAR| Time step [fs]                                                 0.500000
 MD_PAR| Temperature [K]                                              300.000000
 MD_PAR| Temperature tolerance [K]                                      0.000000
 MD_PAR| Print MD information every                                    1 step(s)
 MD_PAR| File type   Print frequency [steps]                          File names
 MD_PAR| Coordinates          1                          H2O-64_NNP_MD-pos-1.xyz
 MD_PAR| Velocities           1                          H2O-64_NNP_MD-vel-1.xyz
 MD_PAR| Energies             1                             H2O-64_NNP_MD-1.ener
 MD_PAR| Dump                20                          H2O-64_NNP_MD-1.restart

 ROT| Rotational analysis information
 ROT| Principal axes and moments of inertia [a.u.]
 ROT|                           1                   2                   3
 ROT| Eigenvalues      5.34188199784E+09   6.40982321354E+09   7.62147148063E+09
 ROT|      x              0.933773226542      0.320060949624      0.160089193635
 ROT|      y             -0.344957371663      0.924070531689      0.164614896652
 ROT|      z             -0.095246906135     -0.208936930652      0.973279705882
 ROT| Number of rotovibrational vectors                                        6

 DOF| Calculation of degrees of freedom
 DOF| Number of atoms                                                        768
 DOF| Number of intramolecular constraints                                     0
 DOF| Number of intermolecular constraints                                     0
 DOF| Invariants (translations + rotations)                                    3
 DOF| Degrees of freedom                                                    2301

 DOF| Restraints information
 DOF| Number of intramolecular restraints                                      0
 DOF| Number of intermolecular restraints                                      0

 THERMOSTAT| Thermostat information for PARTICLES
 THERMOSTAT| Type of thermostat            Canonical Sampling/Velocity Rescaling
 THERMOSTAT| CSVR time constant [fs]                                   30.000000
 THERMOSTAT| Initial kinetic energy                           0.000000000000E+00
 THERMOSTAT| End of thermostat information for PARTICLES

 MD_VEL| Velocities initialization
 MD_VEL| Initial temperature [K]                                      300.000000
 MD_VEL| COM velocity            -0.0000000000     0.0000000000    -0.0000000000

 ENERGY| Total FORCE_EVAL ( NNP ) energy [hartree]         15007.795693525256866

 MD_INI| MD initialization
 MD_INI| Potential energy [hartree]                           0.150077956935E+05
 MD_INI| Kinetic energy [hartree]                             0.109302631574E+01
 MD_INI| Temperature [K]                                              300.000000
 MD_INI| Cell volume [bohr^3]                                 5.171557832354E+04
 MD_INI| Cell volume [ang^3]                                  7.663457952000E+03
 MD_INI| Cell lengths [bohr]      4.69407971E+01  4.69407971E+01  2.34703986E+01
 MD_INI| Cell lengths [ang]       2.48400000E+01  2.48400000E+01  1.24200000E+01
 MD_INI| Cell angles [deg]        9.00000000E+01  9.00000000E+01  9.00000000E+01

 ENERGY| Total FORCE_EVAL ( NNP ) energy [hartree]         15007.394572250461351

 MD| ***************************************************************************
 MD| Step number                                                               1
 MD| Time [fs]                                                          0.500000
 MD| Conserved quantity [hartree]                             0.150085938488E+05
 MD| ---------------------------------------------------------------------------
 MD|                                          Instantaneous             Averages
 MD| CPU time per MD step [s]                      0.058200             0.058200
 MD| Energy drift per atom [K]          -0.121240617340E+03   0.000000000000E+00
 MD| Potential energy [hartree]          0.150073945723E+05   0.150073945723E+05
 MD| Kinetic energy [hartree]            0.119862214542E+01   0.119862214542E+01
 MD| Temperature [K]                             328.982604           328.982604
 MD| ***************************************************************************
 MD| Estimated peak process memory after this step [MiB]                     268

 ENERGY| Total FORCE_EVAL ( NNP ) energy [hartree]         15007.134193211975798

 MD| ***************************************************************************
 MD| Step number                                                               2
 MD| Time [fs]                                                          1.000000
 MD| Conserved quantity [hartree]                             0.150085836061E+05
 MD| ---------------------------------------------------------------------------
 MD|                                          Instantaneous             Averages
 MD| CPU time per MD step [s]                      0.033051             0.045626
 MD| Energy drift per atom [K]          -0.125452080976E+03  -0.627260404879E+02
 MD| Potential energy [hartree]          0.150071341932E+05   0.150072643827E+05
 MD| Kinetic energy [hartree]            0.145504382178E+01   0.132683298360E+01
 MD| Temperature [K]                             399.361973           364.172289
 MD| ***************************************************************************
 MD| Estimated peak process memory after this step [MiB]                     268

 ENERGY| Total FORCE_EVAL ( NNP ) energy [hartree]         15006.556532373710070

 MD| ***************************************************************************
 MD| Step number                                                               3
 MD| Time [fs]                                                          1.500000
 MD| Conserved quantity [hartree]                             0.150082368273E+05
 MD| ---------------------------------------------------------------------------
 MD|                                          Instantaneous             Averages
 MD| CPU time per MD step [s]                      0.033340             0.041531
 MD| Energy drift per atom [K]          -0.268035335345E+03  -0.131162472107E+03
 MD| Potential energy [hartree]          0.150065565324E+05   0.150070284326E+05
 MD| Kinetic energy [hartree]            0.167895587128E+01   0.144420727949E+01
 MD| Temperature [K]                             460.818513           396.387697
 MD| ***************************************************************************
 MD| Estimated peak process memory after this step [MiB]                     268

 ENERGY| Total FORCE_EVAL ( NNP ) energy [hartree]         15006.594403830815281

 MD| ***************************************************************************
 MD| Step number                                                               4
 MD| Time [fs]                                                          2.000000
 MD| Conserved quantity [hartree]                             0.150082424476E+05
 MD| ---------------------------------------------------------------------------
 MD|                                          Instantaneous             Averages
 MD| CPU time per MD step [s]                      0.033475             0.039517
 MD| Energy drift per atom [K]          -0.265724481321E+03  -0.164802974411E+03
 MD| Potential energy [hartree]          0.150065944038E+05   0.150069199254E+05
 MD| Kinetic energy [hartree]            0.163874086424E+01   0.149284067568E+01
 MD| Temperature [K]                             449.780808           409.735975
 MD| ***************************************************************************
 MD| Estimated peak process memory after this step [MiB]                     268

 ENERGY| Total FORCE_EVAL ( NNP ) energy [hartree]         15006.734283910840531

 MD| ***************************************************************************
 MD| Step number                                                               5
 MD| Time [fs]                                                          2.500000
 MD| Conserved quantity [hartree]                             0.150082840022E+05
 MD| ---------------------------------------------------------------------------
 MD|                                          Instantaneous             Averages
 MD| CPU time per MD step [s]                      0.032131             0.038040
 MD| Energy drift per atom [K]          -0.248638658188E+03  -0.181570111166E+03
 MD| Potential energy [hartree]          0.150067342839E+05   0.150068827971E+05
 MD| Kinetic energy [hartree]            0.153782793523E+01   0.150183812759E+01
 MD| Temperature [K]                             422.083507           412.205481
 MD| ***************************************************************************
 MD| Estimated peak process memory after this step [MiB]                     268

 ENERGY| Total FORCE_EVAL ( NNP ) energy [hartree]         15006.805524035702547

 MD| ***************************************************************************
 MD| Step number                                                               6
 MD| Time [fs]                                                          3.000000
 MD| Conserved quantity [hartree]                             0.150086177609E+05
 MD| ---------------------------------------------------------------------------
 MD|                                          Instantaneous             Averages
 MD| CPU time per MD step [s]                      0.031137             0.036889
 MD| Energy drift per atom [K]          -0.111408787111E+03  -0.169876557157E+03
 MD| Potential energy [hartree]          0.150068055240E+05   0.150068699183E+05
 MD| Kinetic energy [hartree]            0.179464074515E+01   0.155063856385E+01
 MD| Temperature [K]                             492.570230           425.599606
 MD| ***************************************************************************
 MD| Estimated peak process memory after this step [MiB]                     268

 ENERGY| Total FORCE_EVAL ( NNP ) energy [hartree]         15006.860229035750308

 MD| ***************************************************************************
 MD| Step number                                                               7
 MD| Time [fs]                                                          3.500000
 MD| Conserved quantity [hartree]                             0.150091599345E+05
 MD| ---------------------------------------------------------------------------
 MD|                                          Instantaneous             Averages
 MD| CPU time per MD step [s]                      0.030702             0.036005
 MD| Energy drift per atom [K]           0.111513954581E+03  -0.129677912623E+03
 MD| Potential energy [hartree]          0.150068602290E+05   0.150068685341E+05
 MD| Kinetic energy [hartree]            0.225364631751E+01   0.165106824294E+01
 MD| Temperature [K]                             618.552258           453.164270
 MD| ***************************************************************************
 MD| Estimated peak process memory after this step [MiB]                     268

 ENERGY| Total FORCE_EVAL ( NNP ) energy [hartree]         15006.643268462961714

 MD| ***************************************************************************
 MD| Step number                                                               8
 MD| Time [fs]                                                          4.000000
 MD| Conserved quantity [hartree]                             0.150091864899E+05
 MD| ---------------------------------------------------------------------------
 MD|                                          Instantaneous             Averages
 MD| CPU time per MD step [s]                      0.030240             0.035285
 MD| Energy drift per atom [K]           0.122432594892E+03  -0.981640991835E+02
 MD| Potential energy [hartree]          0.150066432685E+05   0.150068403759E+05
 MD| Kinetic energy [hartree]            0.247723949009E+01   0.175433964884E+01
 MD| Temperature [K]                             679.921276           481.508896
 MD| ***************************************************************************
 MD| Estimated peak process memory after this step [MiB]                     268

 ENERGY| Total FORCE_EVAL ( NNP ) energy [hartree]         15006.913746841373722

 MD| ***************************************************************************
 MD| Step number                                                               9
 MD| Time [fs]                                                          4.500000
 MD| Conserved quantity [hartree]                             0.150094979242E+05
 MD| ---------------------------------------------------------------------------
 MD|                                          Instantaneous             Averages
 MD| CPU time per MD step [s]                      0.031097             0.034819
 MD| Energy drift per atom [K]           0.250483449858E+03  -0.594254826234E+02
 MD| Potential energy [hartree]          0.150069137468E+05   0.150068485282E+05
 MD| Kinetic energy [hartree]            0.251385340651E+01   0.183873006636E+01
 MD| Temperature [K]                             689.970599           504.671308
 MD| ***************************************************************************
 MD| Estimated peak process memory after this step [MiB]                     268

 ENERGY| Total FORCE_EVAL ( NNP ) energy [hartree]         15005.847786505895783

 MD| ***************************************************************************
 MD| Step number                                                              10
 MD| Time [fs]                                                          5.000000
 MD| Conserved quantity [hartree]                             0.150084491998E+05
 MD| ---------------------------------------------------------------------------
 MD|                                          Instantaneous             Averages
 MD| CPU time per MD step [s]                      0.031171             0.034454
 MD| Energy drift per atom [K]          -0.180715208075E+03  -0.715544551685E+02
 MD| Potential energy [hartree]          0.150058477865E+05   0.150067484540E+05
 MD| Kinetic energy [hartree]            0.252112775764E+01   0.190696983548E+01
 MD| Temperature [K]                             691.967171           523.400894
 MD| ***************************************************************************
 MD| Estimated peak process memory after this step [MiB]                     268

 ENERGY| Total FORCE_EVAL ( NNP ) energy [hartree]         15006.150381849045516

 MD| ***************************************************************************
 MD| Step number                                                              11
 MD| Time [fs]                                                          5.500000
 MD| Conserved quantity [hartree]                             0.150088270273E+05
 MD| ---------------------------------------------------------------------------
 MD|                                          Instantaneous             Averages
 MD| CPU time per MD step [s]                      0.031471             0.034183
 MD| Energy drift per atom [K]          -0.253658071039E+02  -0.673554871626E+02
 MD| Potential energy [hartree]          0.150061503818E+05   0.150066940838E+05
 MD| Kinetic energy [hartree]            0.257206675796E+01   0.196743319207E+01
 MD| Temperature [K]                             705.948262           539.996109
 MD| ***************************************************************************
 MD| Estimated peak process memory after this step [MiB]                     268

 ENERGY| Total FORCE_EVAL ( NNP ) energy [hartree]         15005.924258411754636

 MD| ***************************************************************************
 MD| Step number                                                              12
 MD| Time [fs]                                                          6.000000
 MD| Conserved quantity [hartree]                             0.150088208114E+05
 MD| ---------------------------------------------------------------------------
 MD|                                          Instantaneous             Averages
 MD| CPU time per MD step [s]                      0.029539             0.033796
 MD| Energy drift per atom [K]          -0.279215657787E+02  -0.640693270473E+02
 MD| Potential energy [hartree]          0.150059242584E+05   0.150066299317E+05
 MD| Kinetic energy [hartree]            0.276577414786E+01   0.203396160506E+01
 MD| Temperature [K]                             759.114609           558.255984
 MD| ***************************************************************************
 MD| Estimated peak process memory after this step [MiB]                     268

 ENERGY| Total FORCE_EVAL ( NNP ) energy [hartree]         15005.631420994215659

 MD| ***************************************************************************
 MD| Step number                                                              13
 MD| Time [fs]                                                          6.500000
 MD| Conserved quantity [hartree]                             0.150088123063E+05
 MD| ---------------------------------------------------------------------------
 MD|                                          Instantaneous             Averages
 MD| CPU time per MD step [s]                      0.027759             0.033332
 MD| Energy drift per atom [K]          -0.314185598613E+02  -0.615577295714E+02
 MD| Potential energy [hartree]          0.150056314210E+05   0.150065531232E+05
 MD| Kinetic energy [hartree]            0.301555785344E+01   0.210946900878E+01
 MD| Temperature [K]                             827.672072           578.980299
 MD| ***************************************************************************
 MD| Estimated peak process memory after this step [MiB]                     268

 ENERGY| Total FORCE_EVAL ( NNP ) energy [hartree]         15005.374178855658101

 MD| ***************************************************************************
 MD| Step number                                                              14
 MD| Time [fs]                                                          7.000000
 MD| Conserved quantity [hartree]                             0.150088132377E+05
 MD| ---------------------------------------------------------------------------
 MD|                                          Instantaneous             Averages
 MD| CPU time per MD step [s]                      0.035667             0.033499
 MD| Energy drift per atom [K]          -0.310356038818E+02  -0.593775777365E+02
 MD| Potential energy [hartree]          0.150053741789E+05   0.150064689129E+05
 MD| Kinetic energy [hartree]            0.325607114923E+01   0.219136916167E+01
 MD| Temperature [K]                             893.685111           601.459214
 MD| ***************************************************************************
 MD| Estimated peak process memory after this step [MiB]                     268

 ENERGY| Total FORCE_EVAL ( NNP ) energy [hartree]         15005.714017603373577

 MD| ***************************************************************************
 MD| Step number                                                              15
 MD| Time [fs]                                                          7.500000
 MD| Conserved quantity [hartree]                             0.150093629956E+05
 MD| ---------------------------------------------------------------------------
 MD|                                          Instantaneous             Averages
 MD| CPU time per MD step [s]                      0.025490             0.032965
 MD| Energy drift per atom [K]           0.195005548884E+03  -0.424187026284E+02
 MD| Potential energy [hartree]          0.150057140176E+05   0.150064185865E+05
 MD| Kinetic energy [hartree]            0.343217646465E+01   0.227408964853E+01
 MD| Temperature [K]                             942.020265           624.163284
 MD| ***************************************************************************
 MD| Estimated peak process memory after this step [MiB]                     268

 ENERGY| Total FORCE_EVAL ( NNP ) energy [hartree]         15005.492614924063673

 MD| ***************************************************************************
 MD| Step number                                                              16
 MD| Time [fs]                                                          8.000000
 MD| Conserved quantity [hartree]                             0.150093667695E+05
 MD| ---------------------------------------------------------------------------
 MD|                                          Instantaneous             Averages
 MD| CPU time per MD step [s]                      0.024657             0.032445
 MD| Energy drift per atom [K]           0.196557223713E+03  -0.274827072321E+02
 MD| Potential energy [hartree]          0.150054926149E+05   0.150063607133E+05
 MD| Kinetic energy [hartree]            0.362564041626E+01   0.235856157152E+01
 MD| Temperature [K]                             995.119796           647.348066
 MD| ***************************************************************************
 MD| Estimated peak process memory after this step [MiB]                     268

 ENERGY| Total FORCE_EVAL ( NNP ) energy [hartree]         15006.008571454274716

 MD| ***************************************************************************
 MD| Step number                                                              17
 MD| Time [fs]                                                          8.500000
 MD| Conserved quantity [hartree]                             0.150100859823E+05
 MD| ---------------------------------------------------------------------------
 MD|                                          Instantaneous             Averages
 MD| CPU time per MD step [s]                      0.024839             0.031998
 MD| Energy drift per atom [K]           0.492272302990E+03   0.309111689859E+01
 MD| Potential energy [hartree]          0.150060085715E+05   0.150063399991E+05
 MD| Kinetic energy [hartree]            0.377583293686E+01   0.244193047536E+01
 MD| Temperature [K]                            1036.342735           670.230105
 MD| ***************************************************************************
 MD| Estimated peak process memory after this step [MiB]                     268

 ENERGY| Total FORCE_EVAL ( NNP ) energy [hartree]         15004.716503296214796

 MD| ***************************************************************************
 MD| Step number                                                              18
 MD| Time [fs]                                                          9.000000
 MD| Conserved quantity [hartree]                             0.150090595331E+05
 MD| ---------------------------------------------------------------------------
 MD|                                          Instantaneous             Averages
 MD| CPU time per MD step [s]                      0.027456             0.031746
 MD| Energy drift per atom [K]           0.702324148548E+02   0.682118900727E+01
 MD| Potential energy [hartree]          0.150047165033E+05   0.150062498049E+05
 MD| Kinetic energy [hartree]            0.398819879256E+01   0.252783427076E+01
 MD| Temperature [K]                            1094.630221           693.807889
 MD| ***************************************************************************
 MD| Estimated peak process memory after this step [MiB]                     268

 ENERGY| Total FORCE_EVAL ( NNP ) energy [hartree]         15004.389625368858106

 MD| ***************************************************************************
 MD| Step number                                                              19
 MD| Time [fs]                                                          9.500000
 MD| Conserved quantity [hartree]                             0.150090496953E+05
 MD| ---------------------------------------------------------------------------
 MD|                                          Instantaneous             Averages
 MD| CPU time per MD step [s]                      0.028453             0.031572
 MD| Energy drift per atom [K]           0.661874541565E+02   0.994572927828E+01
 MD| Potential energy [hartree]          0.150043896254E+05   0.150061519007E+05
 MD| Kinetic energy [hartree]            0.426278473433E+01   0.261914745305E+01
 MD| Temperature [K]                            1169.995088           718.870374
 MD| ***************************************************************************
 MD| Estimated peak process memory after this step [MiB]                     268

 ENERGY| Total FORCE_EVAL ( NNP ) energy [hartree]         15005.073314317814948

 MD| ***************************************************************************
 MD| Step number                                                              20
 MD| Time [fs]                                                         10.000000
 MD| Conserved quantity [hartree]                             0.150099735938E+05
 MD| ---------------------------------------------------------------------------
 MD|                                          Instantaneous             Averages
 MD| CPU time per MD step [s]                      0.028374             0.031412
 MD| Energy drift per atom [K]           0.446062079586E+03   0.317515467936E+02
 MD| Potential energy [hartree]          0.150050733143E+05   0.150060979714E+05
 MD| Kinetic energy [hartree]            0.444328022280E+01   0.271035409154E+01
 MD| Temperature [K]                            1219.535200           743.903615
 MD| ***************************************************************************
 MD| Estimated peak process memory after this step [MiB]                     268

 ENERGY| Total FORCE_EVAL ( NNP ) energy [hartree]         15007.324524040892356

 MD| ***************************************************************************
 MD| Step number                                                              21
 MD| Time [fs]                                                         10.500000
 MD| Conserved quantity [hartree]                             0.150125136435E+05
 MD| ---------------------------------------------------------------------------
 MD|                                          Instantaneous             Averages
 MD| CPU time per MD step [s]                      0.037438             0.031699
 MD| Energy drift per atom [K]           0.149044138472E+04   0.101212967647E+03
 MD| Potential energy [hartree]          0.150073245240E+05   0.150061563786E+05
 MD| Kinetic energy [hartree]            0.464949843108E+01   0.280269429818E+01
 MD| Temperature [K]                            1276.135359           769.247984
 MD| ***************************************************************************
 MD| Estimated peak process memory after this step [MiB]                     268

 ENERGY| Total FORCE_EVAL ( NNP ) energy [hartree]         15003.604617704859265

 MD| ***************************************************************************
 MD| Step number                                                              22
 MD| Time [fs]                                                         11.000000
 MD| Conserved quantity [hartree]                             0.150158963860E+05
 MD| ---------------------------------------------------------------------------
 MD|                                          Instantaneous             Averages
 MD| CPU time per MD step [s]                      0.025645             0.031424
 MD| Energy drift per atom [K]           0.288130640685E+04   0.227580851248E+03
 MD| Potential energy [hartree]          0.150036046177E+05   0.150060403895E+05
 MD| Kinetic energy [hartree]            0.116414725964E+02   0.320445694810E+01
 MD| Temperature [K]                            3195.203746           879.518700
 MD| ***************************************************************************
 MD| Estimated peak process memory after this step [MiB]                     268

 ENERGY| Total FORCE_EVAL ( NNP ) energy [hartree]         15008.261824236413304

 MD| ***************************************************************************
 MD| Step number                                                              23
 MD| Time [fs]                                                         11.500000
 MD| Conserved quantity [hartree]                             0.150419182859E+05
 MD| ---------------------------------------------------------------------------
 MD|                                          Instantaneous             Averages
 MD| CPU time per MD step [s]                      0.025437             0.031164
 MD| Energy drift per atom [K]           0.135805984452E+05   0.808146833592E+03
 MD| Potential energy [hartree]          0.150082618242E+05   0.150061369736E+05
 MD| Kinetic energy [hartree]            0.326610577699E+02   0.448517872296E+01
 MD| Temperature [K]                            8964.392888          1231.034969
 MD| ***************************************************************************
 MD| Estimated peak process memory after this step [MiB]                     268

 ENERGY| Total FORCE_EVAL ( NNP ) energy [hartree]         15007.583819020548617

 MD| ***************************************************************************
 MD| Step number                                                              24
 MD| Time [fs]                                                         12.000000
 MD| Conserved quantity [hartree]                             0.150425168565E+05
 MD| ---------------------------------------------------------------------------
 MD|                                          Instantaneous             Averages
 MD| CPU time per MD step [s]                      0.025994             0.030948
 MD| Energy drift per atom [K]           0.138267096649E+05   0.135058695156E+04
 MD| Potential energy [hartree]          0.150075838190E+05   0.150061972589E+05
 MD| Kinetic energy [hartree]            0.334317424662E+02   0.569128554560E+01
 MD| Temperature [K]                            9175.920648          1562.071872
 MD| ***************************************************************************
 MD| Estimated peak process memory after this step [MiB]                     268

 ENERGY| Total FORCE_EVAL ( NNP ) energy [hartree]         15006.989920691981752

 MD| ***************************************************************************
 MD| Step number                                                              25
 MD| Time [fs]                                                         12.500000
 MD| Conserved quantity [hartree]                             0.150427012312E+05
 MD| ---------------------------------------------------------------------------
 MD|                                          Instantaneous             Averages
 MD| CPU time per MD step [s]                      0.025036             0.030712
 MD| Energy drift per atom [K]           0.139025180678E+05   0.185266419621E+04
 MD| Potential energy [hartree]          0.150069899207E+05   0.150062289653E+05
 MD| Kinetic energy [hartree]            0.336538734599E+02   0.680978906217E+01
 MD| Temperature [K]                            9236.888346          1869.064531
 MD| ***************************************************************************
 MD| Estimated peak process memory after this step [MiB]                     268

 ENERGY| Total FORCE_EVAL ( NNP ) energy [hartree]         15003.537677660278860

 MD| ***************************************************************************
 MD| Step number                                                              26
 MD| Time [fs]                                                         13.000000
 MD| Conserved quantity [hartree]                             0.150462494799E+05
 MD| ---------------------------------------------------------------------------
 MD|                                          Instantaneous             Averages
 MD| CPU time per MD step [s]                      0.024283             0.030465
 MD| Energy drift per atom [K]           0.153614333921E+05   0.237223224221E+04
 MD| Potential energy [hartree]          0.150035376777E+05   0.150061254543E+05
 MD| Kinetic energy [hartree]            0.400907576923E+02   0.808982631717E+01
 MD| Temperature [K]                           11003.602690          2220.392922
 MD| ***************************************************************************
 MD| Estimated peak process memory after this step [MiB]                     268

 ENERGY| Total FORCE_EVAL ( NNP ) energy [hartree]         15007.311274076046175

 MD| ***************************************************************************
 MD| Step number                                                              27
 MD| Time [fs]                                                         13.500000
 MD| Conserved quantity [hartree]                             0.150630250461E+05
 MD| ---------------------------------------------------------------------------
 MD|                                          Instantaneous             Averages
 MD| CPU time per MD step [s]                      0.023000             0.030188
 MD| Energy drift per atom [K]           0.222589574867E+05   0.310877762164E+04
 MD| Potential energy [hartree]          0.150073112741E+05   0.150061693735E+05
 MD| Kinetic energy [hartree]            0.523230935041E+02   0.972809547224E+01
 MD| Temperature [K]                           14360.979077          2670.044261
 MD| ***************************************************************************
 MD| Estimated peak process memory after this step [MiB]                     268

 ENERGY| Total FORCE_EVAL ( NNP ) energy [hartree]         15007.408588761512874

 MD| ***************************************************************************
 MD| Step number                                                              28
 MD| Time [fs]                                                         14.000000
 MD| Conserved quantity [hartree]                             0.150629146690E+05
 MD| ---------------------------------------------------------------------------
 MD|                                          Instantaneous             Averages
 MD| CPU time per MD step [s]                      0.026344             0.030051
 MD| Energy drift per atom [K]           0.222135743319E+05   0.379109178986E+04
 MD| Potential energy [hartree]          0.150074085888E+05   0.150062136312E+05
 MD| Kinetic energy [hartree]            0.512755349084E+02   0.112119325950E+02
 MD| Temperature [K]                           14073.458480          3077.309055
 MD| ***************************************************************************
 MD| Estimated peak process memory after this step [MiB]                     268

 ENERGY| Total FORCE_EVAL ( NNP ) energy [hartree]         15008.444210156694680

 MD| ***************************************************************************
 MD| Step number                                                              29
 MD| Time [fs]                                                         14.500000
 MD| Conserved quantity [hartree]                             0.150643634874E+05
 MD| ---------------------------------------------------------------------------
 MD|                                          Instantaneous             Averages
 MD| CPU time per MD step [s]                      0.025830             0.029905
 MD| Energy drift per atom [K]           0.228092776096E+05   0.444689130088E+04
 MD| Potential energy [hartree]          0.150084442102E+05   0.150062905477E+05
 MD| Kinetic energy [hartree]            0.507971925530E+02   0.125769415590E+02
 MD| Temperature [K]                           13942.169138          3451.959402
 MD| ***************************************************************************
 MD| Estimated peak process memory after this step [MiB]                     268

 ENERGY| Total FORCE_EVAL ( NNP ) energy [hartree]         15007.836697348397138

 MD| ***************************************************************************
 MD| Step number                                                              30
 MD| Time [fs]                                                         15.000000
 MD| Conserved quantity [hartree]                             0.150650458486E+05
 MD| ---------------------------------------------------------------------------
 MD|                                          Instantaneous             Averages
 MD| CPU time per MD step [s]                      0.026057             0.029777
 MD| Energy drift per atom [K]           0.230898405723E+05   0.506832294326E+04
 MD| Potential energy [hartree]          0.150078366973E+05   0.150063420860E+05
 MD| Kinetic energy [hartree]            0.512415689002E+02   0.138657624704E+02
 MD| Temperature [K]                           14064.135921          3805.698620
 MD| ***************************************************************************
 MD| Estimated peak process memory after this step [MiB]                     268

 ENERGY| Total FORCE_EVAL ( NNP ) energy [hartree]         15007.316588267671250

 MD| ***************************************************************************
 MD| Step number                                                              31
 MD| Time [fs]                                                         15.500000
 MD| Conserved quantity [hartree]                             0.150653775993E+05
 MD| ---------------------------------------------------------------------------
 MD|                                          Instantaneous             Averages
 MD| CPU time per MD step [s]                      0.025654             0.029644
 MD| Energy drift per atom [K]           0.232262448307E+05   0.565406235899E+04
 MD| Potential energy [hartree]          0.150073165883E+05   0.150063735216E+05
 MD| Kinetic energy [hartree]            0.511884442550E+02   0.150697199473E+02
 MD| Temperature [K]                           14049.554942          4136.145598
 MD| ***************************************************************************
 MD| Estimated peak process memory after this step [MiB]                     268

 ENERGY| Total FORCE_EVAL ( NNP ) energy [hartree]         15004.616452191610733

 MD| ***************************************************************************
 MD| Step number                                                              32
 MD| Time [fs]                                                         16.000000
 MD| Conserved quantity [hartree]                             0.150619262600E+05
 MD| ---------------------------------------------------------------------------
 MD|                                          Instantaneous             Averages
 MD| CPU time per MD step [s]                      0.026541             0.029547
 MD| Energy drift per atom [K]           0.218071752327E+05   0.615884713629E+04
 MD| Potential energy [hartree]          0.150046164522E+05   0.150063186132E+05
 MD| Kinetic energy [hartree]            0.496100388166E+02   0.161491049120E+02
 MD| Temperature [K]                           13616.334237          4432.401493
 MD| ***************************************************************************
 MD| Estimated peak process memory after this step [MiB]                     268

 ENERGY| Total FORCE_EVAL ( NNP ) energy [hartree]         15006.366689674012378

 MD| ***************************************************************************
 MD| Step number                                                              33
 MD| Time [fs]                                                         16.500000
 MD| Conserved quantity [hartree]                             0.150747351945E+05
 MD| ---------------------------------------------------------------------------
 MD|                                          Instantaneous             Averages
 MD| CPU time per MD step [s]                      0.026130             0.029444
 MD| Energy drift per atom [K]           0.270737595862E+05   0.679263236205E+04
 MD| Potential energy [hartree]          0.150063666897E+05   0.150063200700E+05
 MD| Kinetic energy [hartree]            0.597655137265E+02   0.174708142700E+02
 MD| Temperature [K]                           16403.680186          4795.167514
 MD| ***************************************************************************
 MD| Estimated peak process memory after this step [MiB]                     268

 ENERGY| Total FORCE_EVAL ( NNP ) energy [hartree]         15005.856398679083213

 MD| ***************************************************************************
 MD| Step number                                                              34
 MD| Time [fs]                                                         17.000000
 MD| Conserved quantity [hartree]                             0.150761341996E+05
 MD| ---------------------------------------------------------------------------
 MD|                                          Instantaneous             Averages
 MD| CPU time per MD step [s]                      0.026077             0.029345
 MD| Energy drift per atom [K]           0.276489813646E+05   0.740605439153E+04
 MD| Potential energy [hartree]          0.150058563987E+05   0.150063064326E+05
 MD| Kinetic energy [hartree]            0.607483220318E+02   0.187436821454E+02
 MD| Temperature [K]                           16673.428944          5144.528144
 MD| ***************************************************************************
 MD| Estimated peak process memory after this step [MiB]                     268

 ENERGY| Total FORCE_EVAL ( NNP ) energy [hartree]         15006.027283670791803

 MD| ***************************************************************************
 MD| Step number                                                              35
 MD| Time [fs]                                                         17.500000
 MD| Conserved quantity [hartree]                             0.150762973134E+05
 MD| ---------------------------------------------------------------------------
 MD|                                          Instantaneous             Averages
 MD| CPU time per MD step [s]                      0.025413             0.029232
 MD| Energy drift per atom [K]           0.277160480491E+05   0.798633992460E+04
 MD| Potential energy [hartree]          0.150060272837E+05   0.150062984570E+05
 MD| Kinetic energy [hartree]            0.597453700294E+02   0.199151589420E+02
 MD| Temperature [K]                           16398.151399          5466.060237
 MD| ***************************************************************************
 MD| Estimated peak process memory after this step [MiB]                     268

 ENERGY| Total FORCE_EVAL ( NNP ) energy [hartree]         15005.231531087654730

 MD| ***************************************************************************
 MD| Step number                                                              36
 MD| Time [fs]                                                         18.000000
 MD| Conserved quantity [hartree]                             0.150749607340E+05
 MD| ---------------------------------------------------------------------------
 MD|                                          Instantaneous             Averages
 MD| CPU time per MD step [s]                      0.025976             0.029142
 MD| Energy drift per atom [K]           0.271664935017E+05   0.851912196841E+04
 MD| Potential energy [hartree]          0.150052315311E+05   0.150062688201E+05
 MD| Kinetic energy [hartree]            0.582202048448E+02   0.209791879949E+02
 MD| Temperature [K]                           15979.543403          5758.101436
 MD| ***************************************************************************
 MD| Estimated peak process memory after this step [MiB]                     268

 ENERGY| Total FORCE_EVAL ( NNP ) energy [hartree]         15000.298487992655282

 MD| ***************************************************************************
 MD| Step number                                                              37
 MD| Time [fs]                                                         18.500000
 MD| Conserved quantity [hartree]                             0.150750083072E+05
 MD| ---------------------------------------------------------------------------
 MD|                                          Instantaneous             Averages
 MD| CPU time per MD step [s]                      0.025810             0.029052
 MD| Energy drift per atom [K]           0.271860539221E+05   0.902363364283E+04
 MD| Potential energy [hartree]          0.150002984880E+05   0.150061074598E+05
 MD| Kinetic energy [hartree]            0.622602828706E+02   0.220948932618E+02
 MD| Temperature [K]                           17088.412779          6064.326067
 MD| ***************************************************************************
 MD| Estimated peak process memory after this step [MiB]                     268

 ENERGY| Total FORCE_EVAL ( NNP ) energy [hartree]         15001.172218622912624

 MD| ***************************************************************************
 MD| Step number                                                              38
 MD| Time [fs]                                                         19.000000
 MD| Conserved quantity [hartree]                             0.150928300512E+05
 MD| ---------------------------------------------------------------------------
 MD|                                          Instantaneous             Averages
 MD| CPU time per MD step [s]                      0.024598             0.028935
 MD| Energy drift per atom [K]           0.345137296099E+05   0.969442564197E+04
 MD| Potential energy [hartree]          0.150011722186E+05   0.150059775850E+05
 MD| Kinetic energy [hartree]            0.780663068893E+02   0.235678251994E+02
 MD| Temperature [K]                           21426.649779          6468.597744
 MD| ***************************************************************************
 MD| Estimated peak process memory after this step [MiB]                     268

 ENERGY| Total FORCE_EVAL ( NNP ) energy [hartree]         14999.346477820527070

 MD| ***************************************************************************
 MD| Step number                                                              39
 MD| Time [fs]                                                         19.500000
 MD| Conserved quantity [hartree]                             0.151412003037E+05
 MD| ---------------------------------------------------------------------------
 MD|                                          Instantaneous             Averages
 MD| CPU time per MD step [s]                      0.025947             0.028858
 MD| Energy drift per atom [K]           0.544018799615E+05   0.108407706245E+05
 MD| Potential energy [hartree]          0.149993464778E+05   0.150058075566E+05
 MD| Kinetic energy [hartree]            0.126490474860E+03   0.262068674984E+02
 MD| Temperature [K]                           34717.501227          7192.928602
 MD| ***************************************************************************
 MD| Estimated peak process memory after this step [MiB]                     268

 ENERGY| Total FORCE_EVAL ( NNP ) energy [hartree]         15002.446001463005814

 MD| ***************************************************************************
 MD| Step number                                                              40
 MD| Time [fs]                                                         20.000000
 MD| Conserved quantity [hartree]                             0.151637926401E+05
 MD| ---------------------------------------------------------------------------
 MD|                                          Instantaneous             Averages
 MD| CPU time per MD step [s]                      0.026332             0.028795
 MD| Energy drift per atom [K]           0.636910558114E+05   0.121620277542E+05
 MD| Potential energy [hartree]          0.150024460015E+05   0.150057235178E+05
 MD| Kinetic energy [hartree]            0.143646278852E+03   0.291428527822E+02
 MD| Temperature [K]                           39426.208716          7998.760605
 MD| ***************************************************************************
 MD| Estimated peak process memory after this step [MiB]                     268

 ENERGY| Total FORCE_EVAL ( NNP ) energy [hartree]         15001.408706977903421

 MD| ***************************************************************************
 MD| Step number                                                              41
 MD| Time [fs]                                                         20.500000
 MD| Conserved quantity [hartree]                             0.151686321472E+05
 MD| ---------------------------------------------------------------------------
 MD|                                          Instantaneous             Averages
 MD| CPU time per MD step [s]                      0.043041             0.029142
 MD| Energy drift per atom [K]           0.656808913159E+05   0.134673658898E+05
 MD| Potential energy [hartree]          0.150014087070E+05   0.150056182785E+05
 MD| Kinetic energy [hartree]            0.147234342172E+03   0.320231330112E+02
 MD| Temperature [K]                           40411.014827          8789.303391
 MD| ***************************************************************************
 MD| Estimated peak process memory after this step [MiB]                     268

 ENERGY| Total FORCE_EVAL ( NNP ) energy [hartree]         15002.590739202909390

 MD| ***************************************************************************
 MD| Step number                                                              42
 MD| Time [fs]                                                         21.000000
 MD| Conserved quantity [hartree]                             0.151718464587E+05
 MD| ---------------------------------------------------------------------------
 MD|                                          Instantaneous             Averages
 MD| CPU time per MD step [s]                      0.026117             0.029070
 MD| Energy drift per atom [K]           0.670025033899E+05   0.147420120208E+05
 MD| Potential energy [hartree]          0.150025907392E+05   0.150055461942E+05
 MD| Kinetic energy [hartree]            0.146907069748E+03   0.347584648383E+02
 MD| Temperature [K]                           40321.189243          9540.062578
 MD| ***************************************************************************
 MD| Estimated peak process memory after this step [MiB]                     268

 ENERGY| Total FORCE_EVAL ( NNP ) energy [hartree]         15001.846721037602038

 MD| ***************************************************************************
 MD| Step number                                                              43
 MD| Time [fs]                                                         21.500000
 MD| Conserved quantity [hartree]                             0.151718561556E+05
 MD| ---------------------------------------------------------------------------
 MD|                                          Instantaneous             Averages
 MD| CPU time per MD step [s]                      0.029241             0.029074
 MD| Energy drift per atom [K]           0.670064904371E+05   0.159574650072E+05
 MD| Potential energy [hartree]          0.150018467210E+05   0.150054601600E+05
 MD| Kinetic energy [hartree]            0.145211753973E+03   0.373271459810E+02
 MD| Temperature [K]                           39855.880471         10245.081599
 MD| ***************************************************************************
 MD| Estimated peak process memory after this step [MiB]                     268

 ENERGY| Total FORCE_EVAL ( NNP ) energy [hartree]         14999.260537583018959

 MD| ***************************************************************************
 MD| Step number                                                              44
 MD| Time [fs]                                                         22.000000
 MD| Conserved quantity [hartree]                             0.151718771741E+05
 MD| ---------------------------------------------------------------------------
 MD|                                          Instantaneous             Averages
 MD| CPU time per MD step [s]                      0.025543             0.028994
 MD| Energy drift per atom [K]           0.670151325013E+05   0.171178665412E+05
 MD| Potential energy [hartree]          0.149992605376E+05   0.150053192594E+05
 MD| Kinetic energy [hartree]            0.145330371235E+03   0.397817647367E+02
 MD| Temperature [K]                           39888.437033         10918.794222
 MD| ***************************************************************************
 MD| Estimated peak process memory after this step [MiB]                     268

 ENERGY| Total FORCE_EVAL ( NNP ) energy [hartree]         14994.395481581985223

 MD| ***************************************************************************
 MD| Step number                                                              45
 MD| Time [fs]                                                         22.500000
 MD| Conserved quantity [hartree]                             0.151793561401E+05
 MD| ---------------------------------------------------------------------------
 MD|                                          Instantaneous             Averages
 MD| CPU time per MD step [s]                      0.025710             0.028921
 MD| Energy drift per atom [K]           0.700902208603E+05   0.182950299705E+05
 MD| Potential energy [hartree]          0.149943954816E+05   0.150050765088E+05
 MD| Kinetic energy [hartree]            0.155177456427E+03   0.423461134410E+02
 MD| Temperature [K]                           42591.140083         11622.624130
 MD| ***************************************************************************
 MD| Estimated peak process memory after this step [MiB]                     268

 ENERGY| Total FORCE_EVAL ( NNP ) energy [hartree]         14993.124533597954724

 MD| ***************************************************************************
 MD| Step number                                                              46
 MD| Time [fs]                                                         23.000000
 MD| Conserved quantity [hartree]                             0.152123698129E+05
 MD| ---------------------------------------------------------------------------
 MD|                                          Instantaneous             Averages
 MD| CPU time per MD step [s]                      0.027269             0.028885
 MD| Energy drift per atom [K]           0.836642845075E+05   0.197161007213E+05
 MD| Potential energy [hartree]          0.149931245336E+05   0.150048166833E+05
 MD| Kinetic energy [hartree]            0.186598315090E+03   0.454820308681E+02
 MD| Temperature [K]                           51215.138850         12483.330972
 MD| ***************************************************************************
 MD| Estimated peak process memory after this step [MiB]                     268

 ENERGY| Total FORCE_EVAL ( NNP ) energy [hartree]         14990.189873555753366

 MD| ***************************************************************************
 MD| Step number                                                              47
 MD| Time [fs]                                                         23.500000
 MD| Conserved quantity [hartree]                             0.152429522754E+05
 MD| ---------------------------------------------------------------------------
 MD|                                          Instantaneous             Averages
 MD| CPU time per MD step [s]                      0.027088             0.028847
 MD| Energy drift per atom [K]           0.962387198507E+05   0.213442415538E+05
 MD| Potential energy [hartree]          0.149901898736E+05   0.150045054746E+05
 MD| Kinetic energy [hartree]            0.216805827392E+03   0.491272180282E+02
 MD| Temperature [K]                           59506.113697         13483.815711
 MD| ***************************************************************************
 MD| Estimated peak process memory after this step [MiB]                     268

 ENERGY| Total FORCE_EVAL ( NNP ) energy [hartree]         14993.631017850153512

 MD| ***************************************************************************
 MD| Step number                                                              48
 MD| Time [fs]                                                         24.000000
 MD| Conserved quantity [hartree]                             0.152864081646E+05
 MD| ---------------------------------------------------------------------------
 MD|                                          Instantaneous             Averages
 MD| CPU time per MD step [s]                      0.025927             0.028786
 MD| Energy drift per atom [K]           0.114106256447E+06   0.232767835308E+05
 MD| Potential energy [hartree]          0.149936310179E+05   0.150042789234E+05
 MD| Kinetic energy [hartree]            0.252875884533E+03   0.533719819137E+02
 MD| Temperature [K]                           69406.165495         14648.864665
 MD| ***************************************************************************
 MD| Estimated peak process memory after this step [MiB]                     268

 ENERGY| Total FORCE_EVAL ( NNP ) energy [hartree]         14991.746885721395302

 MD| ***************************************************************************
 MD| Step number                                                              49
 MD| Time [fs]                                                         24.500000
 MD| Conserved quantity [hartree]                             0.152856797748E+05
 MD| ---------------------------------------------------------------------------
 MD|                                          Instantaneous             Averages
 MD| CPU time per MD step [s]                      0.026703             0.028743
 MD| Energy drift per atom [K]           0.113806768135E+06   0.251243342370E+05
 MD| Potential energy [hartree]          0.149917468857E+05   0.150040231675E+05
 MD| Kinetic energy [hartree]            0.249732545923E+03   0.573793403629E+02
 MD| Temperature [K]                           68543.421781         15748.753585
 MD| ***************************************************************************
 MD| Estimated peak process memory after this step [MiB]                     268

 ENERGY| Total FORCE_EVAL ( NNP ) energy [hartree]         14986.354351477855744

 MD| ***************************************************************************
 MD| Step number                                                              50
 MD| Time [fs]                                                         25.000000
 MD| Conserved quantity [hartree]                             0.152928722091E+05
 MD| ---------------------------------------------------------------------------
 MD|                                          Instantaneous             Averages
 MD| CPU time per MD step [s]                      0.026139             0.028691
 MD| Energy drift per atom [K]           0.116764044718E+06   0.269571284466E+05
 MD| Potential energy [hartree]          0.149863543515E+05   0.150036697912E+05
 MD| Kinetic energy [hartree]            0.258086269789E+03   0.613934789514E+02
 MD| Temperature [K]                           70836.245955         16850.503433
 MD| ***************************************************************************
 MD| Estimated peak process memory after this step [MiB]                     268

 ENERGY| Total FORCE_EVAL ( NNP ) energy [hartree]         14985.218259511679207

 MD| ***************************************************************************
 MD| Step number                                                              51
 MD| Time [fs]                                                         25.500000
 MD| Conserved quantity [hartree]                             0.153220551395E+05
 MD| ---------------------------------------------------------------------------
 MD|                                          Instantaneous             Averages
 MD| CPU time per MD step [s]                      0.027189             0.028662
 MD| Energy drift per atom [K]           0.128763041543E+06   0.289533228211E+05
 MD| Potential energy [hartree]          0.149852182595E+05   0.150033079964E+05
 MD| Kinetic energy [hartree]            0.283909630540E+03   0.657565407473E+02
 MD| Temperature [K]                           77923.914489         18048.021297
 MD| ***************************************************************************
 MD| Estimated peak process memory after this step [MiB]                     268

 ENERGY| Total FORCE_EVAL ( NNP ) energy [hartree]         14981.251441011776478

 MD| ***************************************************************************
 MD| Step number                                                              52
 MD| Time [fs]                                                         26.000000
 MD| Conserved quantity [hartree]                             0.153316998950E+05
 MD| ---------------------------------------------------------------------------
 MD|                                          Instantaneous             Averages
 MD| CPU time per MD step [s]                      0.027340             0.028637
 MD| Energy drift per atom [K]           0.132728626545E+06   0.309490017388E+05
 MD| Potential energy [hartree]          0.149812514410E+05   0.150028838319E+05
 MD| Kinetic energy [hartree]            0.292802920045E+03   0.701228172722E+02
 MD| Temperature [K]                           80364.831797         19246.421499
 MD| ***************************************************************************
 MD| Estimated peak process memory after this step [MiB]                     268

 ENERGY| Total FORCE_EVAL ( NNP ) energy [hartree]         14966.363621442764270

 MD| ***************************************************************************
 MD| Step number                                                              53
 MD| Time [fs]                                                         26.500000
 MD| Conserved quantity [hartree]                             0.153288022781E+05
 MD| ---------------------------------------------------------------------------
 MD|                                          Instantaneous             Averages
 MD| CPU time per MD step [s]                      0.026281             0.028592
 MD| Energy drift per atom [K]           0.131537228139E+06   0.328468928030E+05
 MD| Potential energy [hartree]          0.149663636214E+05   0.150021947713E+05
 MD| Kinetic energy [hartree]            0.299863273693E+03   0.744575428651E+02
 MD| Temperature [K]                           82302.668118         20436.162001
 MD| ***************************************************************************
 MD| Estimated peak process memory after this step [MiB]                     268

 ENERGY| Total FORCE_EVAL ( NNP ) energy [hartree]         14944.764517726220220

 MD| ***************************************************************************
 MD| Step number                                                              54
 MD| Time [fs]                                                         27.000000
 MD| Conserved quantity [hartree]                             0.153349439784E+05
 MD| ---------------------------------------------------------------------------
 MD|                                          Instantaneous             Averages
 MD| CPU time per MD step [s]                      0.061504             0.029202
 MD| Energy drift per atom [K]           0.134062479794E+06   0.347212555250E+05
 MD| Potential energy [hartree]          0.149447645177E+05   0.150011312481E+05
 MD| Kinetic energy [hartree]            0.322359089222E+03   0.790483122420E+02
 MD| Temperature [K]                           88477.034244         21696.178153
 MD| ***************************************************************************
 MD| Estimated peak process memory after this step [MiB]                     268

 ENERGY| Total FORCE_EVAL ( NNP ) energy [hartree]         14934.723167594551342

 MD| ***************************************************************************
 MD| Step number                                                              55
 MD| Time [fs]                                                         27.500000
 MD| Conserved quantity [hartree]                             0.153499568567E+05
 MD| ---------------------------------------------------------------------------
 MD|                                          Instantaneous             Averages
 MD| CPU time per MD step [s]                      0.033896             0.029287
 MD| Energy drift per atom [K]           0.140235248487E+06   0.366396917607E+05
 MD| Potential energy [hartree]          0.149347231676E+05   0.149999238285E+05
 MD| Kinetic energy [hartree]            0.342009888292E+03   0.838294318066E+02
 MD| Temperature [K]                           93870.536336         23008.439211
 MD| ***************************************************************************
 MD| Estimated peak process memory after this step [MiB]                     268

 ENERGY| Total FORCE_EVAL ( NNP ) energy [hartree]         14945.927533806408974

 MD| ***************************************************************************
 MD| Step number                                                              56
 MD| Time [fs]                                                         28.000000
 MD| Conserved quantity [hartree]                             0.153779452025E+05
 MD| ---------------------------------------------------------------------------
 MD|                                          Instantaneous             Averages
 MD| CPU time per MD step [s]                      0.027710             0.029259
 MD| Energy drift per atom [K]           0.151743074055E+06   0.386951093017E+05
 MD| Potential energy [hartree]          0.149459275338E+05   0.149989596089E+05
 MD| Kinetic energy [hartree]            0.352915608066E+03   0.886345420969E+02
 MD| Temperature [K]                           96863.799979         24327.284939
 MD| ***************************************************************************
 MD| Estimated peak process memory after this step [MiB]                     268

 ENERGY| Total FORCE_EVAL ( NNP ) energy [hartree]         14954.431441871147399

 MD| ***************************************************************************
 MD| Step number                                                              57
 MD| Time [fs]                                                         28.500000
 MD| Conserved quantity [hartree]                             0.154124025003E+05
 MD| ---------------------------------------------------------------------------
 MD|                                          Instantaneous             Averages
 MD| CPU time per MD step [s]                      0.026063             0.029203
 MD| Energy drift per atom [K]           0.165910705651E+06   0.409269618692E+05
 MD| Potential energy [hartree]          0.149544314419E+05   0.149981784130E+05
 MD| Kinetic energy [hartree]            0.372910175790E+03   0.936218339161E+02
 MD| Temperature [K]                          102351.655332         25696.133543
 MD| ***************************************************************************
 MD| Estimated peak process memory after this step [MiB]                     268

 ENERGY| Total FORCE_EVAL ( NNP ) energy [hartree]         14959.550502672367656

 MD| ***************************************************************************
 MD| Step number                                                              58
 MD| Time [fs]                                                         29.000000
 MD| Conserved quantity [hartree]                             0.154566875548E+05
 MD| ---------------------------------------------------------------------------
 MD|                                          Instantaneous             Averages
 MD| CPU time per MD step [s]                      0.027110             0.029167
 MD| Energy drift per atom [K]           0.184119165928E+06   0.433957929737E+05
 MD| Potential energy [hartree]          0.149595505027E+05   0.149975124146E+05
 MD| Kinetic energy [hartree]            0.405627955124E+03   0.990012497990E+02
 MD| Temperature [K]                          111331.616435         27172.607386
 MD| ***************************************************************************
 MD| Estimated peak process memory after this step [MiB]                     268

 ENERGY| Total FORCE_EVAL ( NNP ) energy [hartree]         14959.732972593081286

 MD| ***************************************************************************
 MD| Step number                                                              59
 MD| Time [fs]                                                         29.500000
 MD| Conserved quantity [hartree]                             0.154778326251E+05
 MD| ---------------------------------------------------------------------------
 MD|                                          Instantaneous             Averages
 MD| CPU time per MD step [s]                      0.025944             0.029112
 MD| Energy drift per atom [K]           0.192813276803E+06   0.459282926996E+05
 MD| Potential energy [hartree]          0.149597329726E+05   0.149968720850E+05
 MD| Kinetic energy [hartree]            0.419617419698E+03   0.104435422170E+03
[...]
 MD| Kinetic energy [hartree]            0.272405884011E+04   0.491321196602E+03
 MD| Temperature [K]                          747665.120473        134851.610486
 MD| ***************************************************************************
 MD| Estimated peak process memory after this step [MiB]                     268

 ENERGY| Total FORCE_EVAL ( NNP ) energy [hartree]         14228.765983157196388

 MD| ***************************************************************************
 MD| Step number                                                              91
 MD| Time [fs]                                                         45.500000
 MD| Conserved quantity [hartree]                             0.178602230223E+05
 MD| ---------------------------------------------------------------------------
 MD|                                          Instantaneous             Averages
 MD| CPU time per MD step [s]                      0.274530             0.032490
 MD| Energy drift per atom [K]           0.117236860081E+07   0.221514980074E+06
 MD| Potential energy [hartree]          0.142287659832E+05   0.149016021630E+05
 MD| Kinetic energy [hartree]            0.287076994269E+04   0.517468985021E+03
 MD| Temperature [K]                          787932.523133        142028.323812
 MD| ***************************************************************************
 MD| Estimated peak process memory after this step [MiB]                     268

 ENERGY| Total FORCE_EVAL ( NNP ) energy [hartree]         14123.698774651566055

 MD| ***************************************************************************
 MD| Step number                                                              92
 MD| Time [fs]                                                         46.000000
 MD| Conserved quantity [hartree]                             0.180165847621E+05
 MD| ---------------------------------------------------------------------------
 MD|                                          Instantaneous             Averages
 MD| CPU time per MD step [s]                      0.031393             0.032478
 MD| Energy drift per atom [K]           0.123665906087E+07   0.232549154865E+06
 MD| Potential energy [hartree]          0.141236987747E+05   0.148931466913E+05
 MD| Kinetic energy [hartree]            0.308213760306E+04   0.545345817826E+03
 MD| Temperature [K]                          845946.037719        149679.603311
 MD| ***************************************************************************
 MD| Estimated peak process memory after this step [MiB]                     268

 ENERGY| Total FORCE_EVAL ( NNP ) energy [hartree]         14121.906127421871133

 MD| ***************************************************************************
 MD| Step number                                                              93
 MD| Time [fs]                                                         46.500000
 MD| Conserved quantity [hartree]                             0.182346906153E+05
 MD| ---------------------------------------------------------------------------
 MD|                                          Instantaneous             Averages
 MD| CPU time per MD step [s]                      0.028963             0.032440
 MD| Energy drift per atom [K]           0.132633653350E+07   0.244310309474E+06
 MD| Potential energy [hartree]          0.141219061274E+05   0.148848537821E+05
 MD| Kinetic energy [hartree]            0.324919833479E+04   0.574419500804E+03
 MD| Temperature [K]                          891798.748487        157659.379066
 MD| ***************************************************************************
 MD| Estimated peak process memory after this step [MiB]                     268

 ENERGY| Total FORCE_EVAL ( NNP ) energy [hartree]         14066.559271533662468

 MD| ***************************************************************************
 MD| Step number                                                              94
 MD| Time [fs]                                                         47.000000
 MD| Conserved quantity [hartree]                             0.183471930923E+05
 MD| ---------------------------------------------------------------------------
 MD|                                          Instantaneous             Averages
 MD| CPU time per MD step [s]                      0.032142             0.032437
 MD| Energy drift per atom [K]           0.137259360390E+07   0.256313323245E+06
 MD| Potential energy [hartree]          0.140665592715E+05   0.148761485213E+05
 MD| Kinetic energy [hartree]            0.336189983934E+04   0.604073546958E+03
 MD| Temperature [K]                          922731.628034        165798.445544
 MD| ***************************************************************************
 MD| Estimated peak process memory after this step [MiB]                     268

 ENERGY| Total FORCE_EVAL ( NNP ) energy [hartree]         14077.565008089799448

 MD| ***************************************************************************
 MD| Step number                                                              95
 MD| Time [fs]                                                         47.500000
 MD| Conserved quantity [hartree]                             0.185352862175E+05
 MD| ---------------------------------------------------------------------------
 MD|                                          Instantaneous             Averages
 MD| CPU time per MD step [s]                      0.030373             0.032415
 MD| Energy drift per atom [K]           0.144993089610E+07   0.268877718749E+06
 MD| Potential energy [hartree]          0.140775650081E+05   0.148677423791E+05
 MD| Kinetic energy [hartree]            0.348164818069E+04   0.634363806261E+03
 MD| Temperature [K]                          955598.633968        174112.131738
 MD| ***************************************************************************
 MD| Estimated peak process memory after this step [MiB]                     268

 ENERGY| Total FORCE_EVAL ( NNP ) energy [hartree]         14023.661076108768611

 MD| ***************************************************************************
 MD| Step number                                                              96
 MD| Time [fs]                                                         48.000000
 MD| Conserved quantity [hartree]                             0.187355550511E+05
 MD| ---------------------------------------------------------------------------
 MD|                                          Instantaneous             Averages
 MD| CPU time per MD step [s]                      0.031266             0.032403
 MD| Energy drift per atom [K]           0.153227441224E+07   0.282038100972E+06
 MD| Potential energy [hartree]          0.140236610761E+05   0.148589498655E+05
 MD| Kinetic energy [hartree]            0.367623758908E+04   0.666049991498E+03
 MD| Temperature [K]                         1009007.066753        182808.953978
 MD| ***************************************************************************
 MD| Estimated peak process memory after this step [MiB]                     268

 ENERGY| Total FORCE_EVAL ( NNP ) energy [hartree]         13970.523329524112341

 MD| ***************************************************************************
 MD| Step number                                                              97
 MD| Time [fs]                                                         48.500000
 MD| Conserved quantity [hartree]                             0.190550228676E+05
 MD| ---------------------------------------------------------------------------
 MD|                                          Instantaneous             Averages
 MD| CPU time per MD step [s]                      0.029110             0.032369
 MD| Energy drift per atom [K]           0.166362836702E+07   0.296281299591E+06
 MD| Potential energy [hartree]          0.139705233295E+05   0.148497908290E+05
 MD| Kinetic energy [hartree]            0.398504822152E+04   0.700266468097E+03
 MD| Temperature [K]                         1093765.492419        192200.258498
 MD| ***************************************************************************
 MD| Estimated peak process memory after this step [MiB]                     268

 ENERGY| Total FORCE_EVAL ( NNP ) energy [hartree]         13886.552740675706445

 MD| ***************************************************************************
 MD| Step number                                                              98
 MD| Time [fs]                                                         49.000000
 MD| Conserved quantity [hartree]                             0.193989754763E+05
 MD| ---------------------------------------------------------------------------
 MD|                                          Instantaneous             Averages
 MD| CPU time per MD step [s]                      0.028220             0.032327
 MD| Energy drift per atom [K]           0.180504960911E+07   0.311676894587E+06
 MD| Potential energy [hartree]          0.138865527407E+05   0.148399618689E+05
 MD| Kinetic energy [hartree]            0.434372378330E+04   0.737444603966E+03
 MD| Temperature [K]                         1192210.211438        202404.441691
 MD| ***************************************************************************
 MD| Estimated peak process memory after this step [MiB]                     268

 ENERGY| Total FORCE_EVAL ( NNP ) energy [hartree]         13881.108301317868609

 MD| ***************************************************************************
 MD| Step number                                                              99
 MD| Time [fs]                                                         49.500000
 MD| Conserved quantity [hartree]                             0.197528397687E+05
 MD| ---------------------------------------------------------------------------
 MD|                                          Instantaneous             Averages
 MD| CPU time per MD step [s]                      0.025833             0.032261
 MD| Energy drift per atom [K]           0.195054618767E+07   0.328231129870E+06
 MD| Potential energy [hartree]          0.138811083013E+05   0.148302764794E+05
 MD| Kinetic energy [hartree]            0.462844100815E+04   0.776747597948E+03
 MD| Temperature [K]                         1270355.784169        213191.828989
 MD| ***************************************************************************
 MD| Estimated peak process memory after this step [MiB]                     268

 ENERGY| Total FORCE_EVAL ( NNP ) energy [hartree]         13892.519728312261577

 MD| ***************************************************************************
 MD| Step number                                                             100
 MD| Time [fs]                                                         50.000000
 MD| Conserved quantity [hartree]                             0.199042923726E+05
 MD| ---------------------------------------------------------------------------
 MD|                                          Instantaneous             Averages
 MD| CPU time per MD step [s]                      0.025716             0.032196
 MD| Energy drift per atom [K]           0.201281818333E+07   0.345077000405E+06
 MD| Potential energy [hartree]          0.138925197283E+05   0.148208989119E+05
 MD| Kinetic energy [hartree]            0.469125495554E+04   0.815892671524E+03
 MD| Temperature [K]                         1287596.159765        223935.872296
 MD| ***************************************************************************
 MD| Estimated peak process memory after this step [MiB]                     268

 -------------------------------------------------------------------------------
 -                                                                             -
 -                                DBCSR STATISTICS                             -
 -                                                                             -
 -------------------------------------------------------------------------------
 COUNTER                                    TOTAL       BLAS       SMM       ACC
 flops inhomo. stacks                           0       0.0%      0.0%      0.0%
 flops total                         0.000000E+00       0.0%      0.0%      0.0%
 flops max/rank                      0.000000E+00       0.0%      0.0%      0.0%
 matmuls inhomo. stacks                         0       0.0%      0.0%      0.0%
 matmuls total                                  0       0.0%      0.0%      0.0%
 number of processed stacks                     0       0.0%      0.0%      0.0%
 average stack size                                     0.0       0.0       0.0
 marketing flops                     0.000000E+00
 -------------------------------------------------------------------------------
 -                                                                             -
 -                      DBCSR MESSAGE PASSING PERFORMANCE                      -
 -                                                                             -
 -------------------------------------------------------------------------------
 ROUTINE             CALLS      AVE VOLUME [Bytes]
 MP_Bcast                1                     12.
 MP_Allreduce           19                     21.
 -------------------------------------------------------------------------------

 MEMORY| Estimated peak process memory [MiB]                                 268

 -------------------------------------------------------------------------------
 -                                                                             -
 -                         MESSAGE PASSING PERFORMANCE                         -
 -                                                                             -
 -------------------------------------------------------------------------------

 ROUTINE             CALLS      AVE VOLUME [Bytes]
 MP_Bcast              282                 181918.
 MP_Allreduce         1444                   4491.
 -------------------------------------------------------------------------------


 -------------------------------------------------------------------------------
 -                                                                             -
 -                           R E F E R E N C E S                               -
 -                                                                             -
 -------------------------------------------------------------------------------
 
 CP2K version 2026.1 (Development Version), the CP2K developers group (2026).
 CP2K is freely available from https://www.cp2k.org/ .
 
 C. Schran, J. Behler, D. Marx.
 J. Chem. Theory Comput. 16, 88-99 (2020).
 Automated Fitting of Neural Network Potentials at Coupled Cluster Accuracy: 
 Protonated Water Clusters as Testing Ground.
 https://doi.org/10.1021/acs.jctc.9b00805

 C. Schran, K. Brezina, O. Marsalek.
 J. Chem. Phys. 153, 104105 (2020).
 Committee neural network potentials control generalization errors and enable 
 active learning.
 https://doi.org/10.1063/5.0016004

 O. Schuett, P. Messmer, J. Hutter, J. VandeVondele.
 Electronic Structure Calculations on Graphics Processing Units, 173-190 (2016).
 GPU-Accelerated Sparse Matrix-Matrix Multiplication for Linear Scaling Density 
 Functional Theory.
 https://doi.org/10.1002/9781118670712.ch8

 A. Heinecke, G. Henry, M. Hutchinson, H. Pabst.
 Proceedings of Intl. Supercomputing Conference, 981-991 (2016).
 LIBXSMM: Accelerating Small Matrix Multiplications by Runtime Code Generation.
 https://doi.org/10.1109/SC.2016.83

 J. Hutter, M. Iannuzzi, F. Schiffmann, J. VandeVondele.
 WIREs Comput Mol Sci. 4, 15-25 (2014).
 CP2K: atomistic simulations of condensed matter systems.
 https://doi.org/10.1002/wcms.1159

 U. Borstnik, J. VandeVondele, V. Weber, J. Hutter.
 Parallel Comput. 40, 47-58 (2014).
 Sparse matrix multiplication: The distributed block-compressed sparse row 
 library.
 https://doi.org/10.1016/j.parco.2014.03.012

 J. Behler.
 J. Chem. Phys. 134, 074106 (2011).
 Atom-centered symmetry functions for constructing high-dimensional neural 
 network potentials.
 https://doi.org/10.1063/1.3553717

 G. Bussi, D. Donadio, M. Parrinello.
 J. Chem. Phys. 126, 014101 (2007).
 Canonical sampling through velocity rescaling.
 https://doi.org/10.1063/1.2408420

 J. Behler, M. Parrinello.
 Phys. Rev. Lett. 98, 146401 (2007).
 Generalized neural-network representation of high-dimensional potential-energy 
 surfaces.
 https://doi.org/10.1103/PhysRevLett.98.146401

 M. Frigo, S. G. Johnson.
 Proc. IEEE 93, 216-231 (2005).
 The design and implementation of FFTW3.
 https://doi.org/10.1109/JPROC.2004.840301


 -------------------------------------------------------------------------------
 -                                                                             -
 -                                T I M I N G                                  -
 -                                                                             -
 -------------------------------------------------------------------------------
 SUBROUTINE                       CALLS  ASD         SELF TIME        TOTAL TIME
                                MAXIMUM       AVERAGE  MAXIMUM  AVERAGE  MAXIMUM
 CP2K                                 1  1.0    0.004    0.005    3.463    3.463
 qs_mol_dyn_low                       1  2.0    0.004    0.005    3.235    3.247
 velocity_verlet                    100  3.0    0.005    0.008    3.097    3.131
 nnp_calc_energy_force              101  4.0    0.066    0.613    2.018    2.019
 nnp_calc_acsf                     2424  5.0    0.048    0.056    0.951    1.274
 nnp_acsf_angular                  2424  6.0    0.878    1.195    0.878    1.195
 md_output                          100  3.0    0.000    0.000    0.102    1.123
 mp_sum_dv                          609  4.4    1.081    1.118    1.081    1.118
 csvr_particles                     200  4.0    0.039    0.042    1.071    1.105
 md_write_output                    101  4.0    0.017    0.453    0.041    1.065
 mp_sum_dm                          301  5.0    0.439    0.692    0.439    0.692
 write_trajectory                   404  5.0    0.018    0.502    0.021    0.609
 mp_sum_b                           101  5.0    0.551    0.569    0.551    0.569
 nnp_init                             1  2.0    0.000    0.000    0.206    0.208
 nnp_init_subsys                      1  3.0    0.000    0.000    0.203    0.205
 nnp_init_model                       1  4.0    0.013    0.020    0.143    0.154
 parser_read_line                  5074  5.0    0.001    0.001    0.130    0.147
 parser_read_line_low                25  6.0    0.010    0.019    0.129    0.147
 broadcast_input_information         25  7.0    0.023    0.033    0.119    0.144
 write_particle_coordinates         101  6.0    0.003    0.108    0.003    0.108
 write_particle_distances             1  4.0    0.060    0.083    0.060    0.083
 mp_bcast_am_src                     25  8.0    0.053    0.082    0.053    0.082
 -------------------------------------------------------------------------------

 The number of warnings for this run is : 0
 
 -------------------------------------------------------------------------------
  **** **** ******  **  PROGRAM ENDED AT                 2026-04-30 04:03:03.227
 ***** ** ***  *** **   PROGRAM RAN ON                             phy-cerberus4
 **    ****   ******    PROGRAM RAN BY                                     crm98
 ***** **    ** ** **   PROGRAM PROCESS ID                                870495
  **** **  *******  **  PROGRAM STOPPED IN /lsc/zeushome/crm98/cp2k_benchmarks/c
                                           p2k_optimized/NNP/NNP_size_scaling_fe
                                           ature-nnp-verlet-cells_30-04_04-02/N_
                                           256
